                  Welcome to Q-Chem
     A Quantum Leap Into The Future Of Chemistry


 Q-Chem 6.0 (devel), Q-Chem, Inc., Pleasanton, CA (2022)

 E. Epifanovsky,  A. T. B. Gilbert,  Xintian Feng,  Joonho Lee,  Yuezhi Mao,  
 N. Mardirossian,  P. Pokhilko,  A. White,  M. Wormit,  M. P. Coons,  
 A. L. Dempwolff,  Zhengting Gan,  D. Hait,  P. R. Horn,  L. D. Jacobson,  
 I. Kaliman,  J. Kussmann,  A. W. Lange,  Ka Un Lao,  D. S. Levine,  Jie Liu,  
 S. C. McKenzie,  A. F. Morrison,  K. Nanda,  F. Plasser,  D. R. Rehn,  
 M. L. Vidal,  Zhi-Qiang You,  Ying Zhu,  B. Alam,  B. Albrecht,  
 A. Aldossary,  E. Alguire,  J. H. Andersen,  V. Athavale,  D. Barton,  
 K. Begam,  A. Behn,  N. Bellonzi,  Y. A. Bernard,  E. J. Berquist,  
 H. Burton,  A. Carreras,  K. Carter-Fenk,  Romit Chakraborty,  
 Chandrima Chakravarty,  Junhan Chen,  A. D. Chien,  K. D. Closser,  
 V. Cofer-Shabica,  L. Cunha,  S. Dasgupta,  Jia Deng,  M. de Wergifosse,  
 M. Diedenhofen,  Hainam Do,  S. Ehlert,  Po-Tung Fang,  S. Fatehi,  
 Qingguo Feng,  T. Friedhoff,  B. Ganoe,  J. Gayvert,  Qinghui Ge,  
 G. Gidofalvi,  M. Goldey,  J. Gomes,  C. Gonzalez-Espinoza,  S. Gulania,  
 A. Gunina,  J. A. Gyamfi,  M. W. D. Hanson-Heine,  P. H. P. Harbach,  
 A. W. Hauser,  M. F. Herbst,  M. Hernandez Vera,  M. Hodecker,  
 Z. C. Holden,  S. Houck,  Xunkun Huang,  Kerwin Hui,  B. C. Huynh,  
 K. Ikeda,  M. Ivanov,  Hyunjun Ji,  Zuxin Jin,  Hanjie Jiang,  B. Kaduk,  
 S. Kaehler,  R. Kang,  K. Khistyaev,  Jaehoon Kim,  Yongbin Kim,  
 P. Klunzinger,  Z. Koczor-Benda,  Joong Hoon Koh,  D. Kosenkov,  
 Saikiran Kotaru,  L. Koulias,  T. Kowalczyk,  C. M. Krauter,  K. Kue,  
 A. Kunitsa,  T. Kus,  A. Landau,  K. V. Lawler,  D. Lefrancois,  S. Lehtola,  
 Rain Li,  Shaozhi Li,  Yi-Pei Li,  Jiashu Liang,  M. Liebenthal,  
 Hung-Hsuan Lin,  You-Sheng Lin,  Fenglai Liu,  Kuan-Yu Liu,  
 M. Loipersberger,  A. Luenser,  C. Malbon,  A. Manjanath,  P. Manohar,  
 E. Mansoor,  S. F. Manzer,  Shan-Ping Mao,  A. V. Marenich,  T. Markovich,  
 S. Mason,  F. Matz,  S. A. Maurer,  P. F. McLaughlin,  M. F. S. J. Menger,  
 J.-M. Mewes,  S. A. Mewes,  P. Morgante,  Mohammad Mostafanejad,  
 J. W. Mullinax,  K. J. Oosterbaan,  G. Paran,  V. Parravicini,  
 Alexander C. Paul,  Suranjan K. Paul,  F. Pavosevic,  Zheng Pei,  S. Prager,  
 E. I. Proynov,  E. Ramos,  B. Rana,  A. E. Rask,  A. Rettig,  R. M. Richard,  
 F. Rob,  E. Rossomme,  T. Scheele,  M. Scheurer,  M. Schneider,  
 P. E. Schneider,  N. Sergueev,  S. M. Sharada,  Hengyuan Shen,  
 W. Skomorowski,  D. W. Small,  C. J. Stein,  Yingli Su,  Yu-Chuan Su,  
 E. J. Sundstrom,  Zhen Tao,  J. Thirman,  Hung-Yi Tsai,  T. Tsuchimochi,  
 N. M. Tubman,  C. Utku,  S. P. Veccham,  O. Vydrov,  J. Wenzel,  
 Jonathan Wong,  J. Witte,  A. Yamada,  Chou-Hsun Yang,  Kun Yao,  
 S. Yeganeh,  S. R. Yost,  A. Zech,  F. Zeller,  Igor Ying Zhang,  
 Xing Zhang,  Yu Zhang,  D. Zuev,  A. Aspuru-Guzik,  A. T. Bell,  
 N. A. Besley,  K. B. Bravaya,  B. R. Brooks,  D. Casanova,  Jeng-Da Chai,  
 Hsing-Ta Chen,  S. Coriani,  C. J. Cramer,  A. E. DePrince, III,  
 R. A. DiStasio Jr.,  A. Dreuw,  B. D. Dunietz,  T. R. Furlani,  
 W. A. Goddard III,  S. Grimme,  S. Hammes-Schiffer,  T. Head-Gordon,  
 W. J. Hehre,  Chao-Ping Hsu,  T.-C. Jagau,  Yousung Jung,  A. Klamt,  
 Jing Kong,  D. S. Lambrecht,  Xiangyuan Li,  WanZhen Liang,  N. J. Mayhall,  
 C. W. McCurdy,  J. B. Neaton,  T. Neudecker,  C. Ochsenfeld,  
 J. A. Parkhill,  R. Peverati,  V. A. Rassolov,  Haisheng Ren,  Yihan Shao,  
 L. V. Slipchenko,  R. P. Steele,  J. E. Subotnik,  A. J. W. Thom,  
 A. Tkatchenko,  D. G. Truhlar,  T. Van Voorhis,  Fan Wang,  
 T. A. Wesolowski,  K. B. Whaley,  H. L. Woodcock III,  P. M. Zimmerman,  
 S. Faraji,  P. M. W. Gill,  M. Head-Gordon,  J. M. Herbert,  A. I. Krylov

 Contributors to earlier versions of Q-Chem not listed above: 
 R. D. Adamson,  B. Austin,  R. Baer,  J. Baker,  G. J. O. Beran,  
 K. Brandhorst,  S. T. Brown,  E. F. C. Byrd,  Arup K. Chakraborty,  
 G. K. L. Chan,  Chun-Min Chang,  Yunqing Chen,  C.-L. Cheng,  
 Siu Hung Chien,  D. M. Chipman,  D. L. Crittenden,  H. Dachsel,  
 R. J. Doerksen,  A. D. Dutoi,  R. G. Edgar,  J. Fosso-Tande,  
 L. Fusti-Molnar,  D. Ghosh,  A. Ghysels,  A. Golubeva-Zadorozhnaya,  
 J. Gonthier,  M. S. Gordon,  S. R. Gwaltney,  G. Hawkins,  J. E. Herr,  
 A. Heyden,  S. Hirata,  E. G. Hohenstein,  G. Kedziora,  F. J. Keil,  
 C. Kelley,  Jihan Kim,  R. A. King,  R. Z. Khaliullin,  P. P. Korambath,  
 W. Kurlancheek,  A. Laurent,  A. M. Lee,  M. S. Lee,  S. V. Levchenko,  
 Ching Yeh Lin,  D. Liotard,  E. Livshits,  R. C. Lochan,  I. Lotan,  
 L. A. Martinez-Martinez,  P. E. Maslen,  N. Nair,  D. P. O'Neill,  
 D. Neuhauser,  E. Neuscamman,  C. M. Oana,  R. Olivares-Amaya,  R. Olson,  
 T. M. Perrine,  B. Peters,  P. A. Pieniazek,  A. Prociuk,  Y. M. Rhee,  
 J. Ritchie,  M. A. Rohrdanz,  E. Rosta,  N. J. Russ,  H. F. Schaefer III,  
 M. W. Schmidt,  N. E. Schultz,  S. Sharma,  N. Shenvi,  C. D. Sherrill,  
 A. C. Simmonett,  A. Sodt,  T. Stein,  D. Stuck,  K. S. Thanthiriwatte,  
 V. Vanovschi,  L. Vogt,  Tao Wang,  A. Warshel,  M. A. Watson,  
 C. F. Williams,  Q. Wu,  X. Xu,  Jun Yang,  W. Zhang,  Yan Zhao

   Please cite Q-Chem as follows:
  "Software for the frontiers of quantum chemistry:
   An overview of developments in the Q-Chem 5 package"
   J. Chem. Phys. 155, 084801 (2021)
   https://doi.org/10.1063/5.0055522 (open access)

 Q-Chem 6.0.1 for Intel X86 EM64T Linux

 Parts of Q-Chem use Armadillo 9.900.5 (Nocturnal Misbehaviour).
 http://arma.sourceforge.net/

 Q-Chem begins on Tue Oct 24 11:13:21 2023  

 Host: atlas-145
0

     Scratch files written to ./qchem84288//
 Processing $rem in /scratch/abel/SOFTWARE/qchem/config/preferences:
 Processing $rem in /dipc/acebg/.qchemrc:

 Checking the input file for inconsistencies... 	...done.

--------------------------------------------------------------
User input:
--------------------------------------------------------------
$comment
 RAS-SF CALCULATION
$end

$molecule
 READ nf.molecule
$end

$rem
!**CALCULATION TYPE***     
JOBTYPE            sp    
EXCHANGE           HF
CORRELATION        RASCI    !RASCI=Casanova; RASCI2=Zimmerman
BASIS              sto-3g

!***SCF REFERENCE***
!SKIP_SCFMAN        FALSE
UNRESTRICTED       FALSE
!SCF_GUESS          core
!SCF_GUESS_MIX      FALSE
!SCF_GUESS_ALWAYS   FALSE
MAX_SCF_CYCLES     500
!SCF_CONVERGENCE    8
!SCF_ALGORITHM      DIIS !DIIS,DM,DIIS_DM,GDM,DIIS_GDM,GD

!SYMMETRY           TRUE !use of symmetry for calculating integrals
!SYM_IGNORE         FALSE !turn off using symmetry
!SYM_TOL            5 !tolerance for determining point group

!THRESH             14
SCF_FINAL_PRINT     1 !0,1,2,3

!****RAS-SF****
RAS_ROOTS          10       !number of RAS-CI roots to be computed
SET_ITER           100      !number of iterations in RASCI
RAS_ELEC           8       !number of electrons in RAS2
RAS_ELEC_ALPHA     5       !spin-α electrons in RAS2 
RAS_ELEC_BETA      3       !spin-β electrons in RAS2

RAS_ACT            6       !number of orbitals in RAS2 
RAS_ACT_ORB   [5, 6, 7, 8, 9, 10]  !user-selected RAS2 orbitals
RAS_OCC            4       !number of orbitals in RAS1
!N_FROZEN_CORE      0     !Number of frozen core orbitals
!N_FROZEN_VIRTUAL   0      !Number of frozen virtual orbitals

RAS_DO_HOLE        TRUE   !presence of hole excitations in RAS-CI wave function
RAS_DO_PART        TRUE   !presence of particle excitations
!RAS_AMPL_PRINT     10     !threshold (×10 2 ) for the CI amplitudes

!RAS_GUESS_CS       0      !number of closed shell guess conﬁgurations
!RAS_SPIN_MULT      0      !spin multiplicity: 0=any, 2n+1=defined 
!RAS_SRDFT          FALSE  !short-range density functional RAS-CI
!RAS_NFRAG          0     !fragments of excitation analysis in RASCI

RAS_PRINT          2      !level of information
RAS_NATORB         TRUE   !computation of the natural orbital occupancies
!RAS_NATORB_STATE  0      !Saves NO of i RAS computed state in .fchk ﬁle
!RAS_FOD            TRUE

!****RAS-SOC****
CALC_SOC           TRUE   !calculate SOC for EOM-CC, RAS-CI, ADC, TDDFT/TDA and TDDFT
!RAS_SOC_2E        TRUE   !two-electron mean-ﬁeld contribution, default=true
RAS_SOC_SYM_DENS   TRUE   !averaging of α and β densities

!****MEMORY****
MEM_TOTAL          60000 !Default 2000 MB
MEM_STATIC         16000  !Default 64 MB

!**Molecular Properties and Analysis **                                                                                          
!GUI                2
STATE_ANALYSIS     TRUE
MOLDEN_FORMAT      TRUE
PRINT_ORBITALS     20
$end                                           

--------------------------------------------------------------
 ----------------------------------------------------------------
             Standard Nuclear Orientation (Angstroms)
    I     Atom           X                Y                Z
 ----------------------------------------------------------------
    1      N       0.0000000000     0.0000000000    -0.7407562500
    2      F       0.0000000000     0.0000000000     0.5761437500
 ----------------------------------------------------------------
 Molecular Point Group                 C2v   NOp =  4
 Largest Abelian Subgroup              C2v   NOp =  4
 Nuclear Repulsion Energy =          25.31563845 hartrees
 There are        9 alpha and        7 beta electrons
 Requested basis set is STO-3G
 There are 4 shells and 10 basis functions

 Q-Chem warning in module libmdc/get_mega.C, line 167:

 Allowed MEM_STATIC has been capped at MEM_STATIC=8191.
 Reduce the value of MEM_STATIC to silence this warning.


 Total QAlloc Memory Limit  60000 MB
 Mega-Array Size      8007 MB
 MEM_STATIC part      8191 MB


                       Distance Matrix (Angstroms)
             N (  1)
   F (  2)  1.316900
 
 A cutoff of  1.0D-09 yielded     10 shell pairs
 There are        67 function pairs
 Smallest overlap matrix eigenvalue = 4.44E-01

 Scale SEOQF with 1.000000e+00/1.000000e+00/1.000000e+00

 Standard Electronic Orientation quadrupole field applied
 Nucleus-field energy     =    -0.0000000073 hartrees
 Guess from superposition of atomic densities
 Warning:  Energy on first SCF cycle will be non-variational
 SAD guess density has 16.000000 electrons

 -----------------------------------------------------------------------
  General SCF calculation program by
  Eric Jon Sundstrom, Paul Horn, Yuezhi Mao, Dmitri Zuev, Alec White,
  David Stuck, Shaama M.S., Shane Yost, Joonho Lee, David Small,
  Daniel Levine, Susi Lehtola, Hugh Burton, Evgeny Epifanovsky,
  Bang C. Huynh
 -----------------------------------------------------------------------
 Hartree-Fock
 Orthonormalizing orbitals
 A restricted open-shell SCF calculation will be
 performed using GDM
 SCF converges when RMS gradient is below 1.0e-05
 ---------------------------------------
  Cycle       Energy        RMS Gradient
 ---------------------------------------
    1    -151.5260172399      4.37e-01   Descent step
    2    -151.6795165146      1.51e-01   Dog-leg BFGS step
    3    -151.7262913686      4.37e-02   Normal BFGS step
    4    -151.7287377494      1.65e-02   Normal BFGS step
    5    -151.7292177314      1.92e-03   Normal BFGS step
    6    -151.7292235580      2.87e-04   Normal BFGS step
    7    -151.7292236924      3.76e-05   Normal BFGS step
    8    -151.7292236935      1.08e-06  Convergence criterion met
The disked orbital energies are calculated using alpha and beta Focks
 ---------------------------------------
 Alpha HF Exchange    Energy =  -9.06225509742390
 Beta HF Exchange     Energy =  -7.76616106500821
 Nuclear Attraction   Energy =   0.00000000000000
 One-Electron (alpha) Energy = -139.39830220814287
 One-Electron (beta)  Energy = -122.47711971030947
 Total Coulomb        Energy = 101.65897594044657
 Final Alpha MO Eigenvalues
            1           2           3           4           5           6
    1 -26.0392302 -15.4400658  -1.6114650  -1.0235922  -0.6188444  -0.6188444
            7           8           9          10
    1  -0.5763405  -0.4482345  -0.4482345   0.5360168
 Final Beta MO Eigenvalues
            1           2           3           4           5           6
    1 -26.0332875 -15.3974681  -1.5681129  -0.8217490  -0.5423953  -0.5423953
            7           8           9          10
    1  -0.4840428   0.3089278   0.3089278   0.6095163
 SCF time:   CPU 0.10s  wall 1.00s 
<S^2> =          2.000000000
 SCF   energy in the final basis set =     -151.7292236935
 Total energy in the final basis set =     -151.7292236935
  
     ##========================================##
     ||                                        ||
     ||              R A S M A N 2             ||
     ||________________________________________||
     ||                                        ||
     ||  Author:                               ||
     ||                                        ||
     ||        David Casanova (2010)           ||
     ||                                        ||
     ##========================================##
  
Setting single-point xc-functionals (if necessary)

  ***************************************************
  *  RAS-CI Dimensions:                             *
  *                                                 *
  *  Active Elec.:   8 ( 5, 3)   Active Orb.:   6   *
  *  Doubly Occ. :   4           Doubly Vir.:   0   *
  *  Frozen Occ. :   0           Frozen Vir.:   0   *
  *                                                 *
  *  Total CI configurations:       560             * 
  *    Active configurations:       120             * 
  *      Hole configurations:       440             * 
  *  Particle configurations:         0             * 
  *                                                 *
  *   Requested states:       10                    *
  *  Spin multiplicity: Any multiplicity            *
  *                                                 *
  ***************************************************
-----------------------------------------
    Memory requirements of RASCI

 Each CI-vector requires      0.00 MiB 
 Max. subspace vectors            560      

 Reduced Lists                0.00 MiB 
 Excitation Lists             0.00 MiB 
 Excitation Lists Sign        0.00 MiB 
 CI-space (Max)               4.83 MiB 
 Integrals                    0.05 MiB 
 Memory required (Max)        4.83 MiB 
 Memory available          7811.55 MiB 

    Disk requirements of RASCI

 Fock matrix                  0.00 MiB 
 2-electron integrals         0.05 MiB 
 CI-space                     4.79 MiB 
 Disk required                4.84 MiB 
-----------------------------------------
  
RAS1 HF-like energy:           -131.5007001109
 Computing integrals
 Computing J and K matrices
 Computing addressing
 Making amplitude guesses
 
Direct CI diagonalization
 ---------------------------------------------------
 Iter    Rts Conv    Rts Left    Ttl Dev     Max Dev
 ---------------------------------------------------
   1         0          10      0.207626    0.040835
   2         0          10      0.113187    0.021870
   3         0          10      0.144377    0.032770
   4         0          10      0.068110    0.012125
   5         0          10      0.062280    0.020072
   6         0          10      0.055880    0.028668
   7         0          10      0.042502    0.014644
   8         0          10      0.074576    0.036409
   9         0          10      0.072512    0.027283
  10         0          10      0.042172    0.014297
  11         0          10      0.064329    0.027147
  12         0          10      0.038611    0.013817
  13         0          10      0.054261    0.023737
  14         0          10      0.029082    0.010187
  15         0          10      0.021514    0.009004
  16         0          10      0.012858    0.004746
  17         1           9      0.006604    0.002600
  18         1           9      0.007986    0.003335
  19         1           9      0.002201    0.000902
  20         1           9      0.002399    0.001076
  21         2           8      0.000898    0.000385
  22         2           8      0.007586    0.006233
  23         2           8      0.006707    0.006348
  24         5           5      0.007646    0.007144
  25         5           5      0.004413    0.004203
  26         5           5      0.004850    0.004578
  27         5           5      0.002815    0.002736
  28         5           5      0.004730    0.004641
  29         7           3      0.001245    0.001223
  30         7           3      0.001647    0.001618
  31         7           3      0.000330    0.000322
  32         7           3      0.000409    0.000402
  33         9           1      0.000125    0.000120
  34         9           1      0.000144    0.000140
  35         9           1      0.000036    0.000032
  36         9           1      0.000044    0.000040
  37         9           1      0.000011    0.000007
  38         9           1      0.000009    0.000006
  39         9           1      0.000006    0.000003
  40        10           0      0.000004    0.000001    Roots Converged
 ---------------------------------------------------
   
**************************************************
 RAS-CI total energy for state   1:   -151.787491675692
  Excitation energy (eV) =  0.000000000000
  State symmetry: A2    (C2v      )
  <S^2>      :  2.0000
  Dipole Moment:   -0.0000 X     0.0000 Y    -0.2527 Z
 NATURAL OCCUPATION NUMBERS (higher than 1.0E-05)
            1           2           3           4           5           6
    1   2.0000000   1.9999997   1.9998517   1.9961101   1.9856730   1.9856730
            7           8           9          10
    1   1.9518966   1.0136466   1.0136466   0.0535027
 Created directory ./qchem84288/plots

  Amplitudes : 
  
 | HOLE  | ALPHA  | BETA   | PART  |    AMPLITUDE 
--------------------------------------------------
 |       | 111110 | 111000 |       |     9.7276460255801E-01
 |       | 110111 | 110001 |       |    -1.0435088381113E-01
--------------------------------------------------
*** Contributions RASCI wfn    Active:  99.03
                                 Hole:   0.97
                                 Part:   0.00

      Mulliken population analysis 
 ---------------------------------------------------
   Atom    Charge (a.u.)   Spin (a.u.)  
 ---------------------------------------------------
   1  N   -0.000468        1.806032 
   2  F    0.000468        0.193968 
 ---------------------------------------------------
   Sum:   -0.000000        2.000000 
 ---------------------------------------------------
 
  
 NATURAL OCCUPATION NUMBERS (higher than 1.0E-05)
            1           2           3           4           5           6
    1   2.0000000   1.9999997   1.9998517   1.9961101   1.9856730   1.9856730
            7           8           9          10
    1   1.9518966   1.0136466   1.0136466   0.0535027
  
*** Unpaired Electrons
 Yamaguchi Nd:         2.26
 Head-Gordon Nu:       2.11
 Head-Gordon Nu_nl:    2.02
  
**************************************************
 RAS-CI total energy for state   2:   -151.507940886555
  Excitation energy (eV) =  7.606964002669
  State symmetry: B1    (C2v      )
  <S^2>      :  2.0000
  Dipole Moment:   -0.0000 X     0.0000 Y    -0.1656 Z
  Trans. Moment:   -0.0041 X    -0.3544 Y    -0.0000 Z
  Strength   :  0.023405
  Natural transition orbitals ( 1 -> 2 ):
   e-/hole pair  1 alpha:  ampl =  0.118217 (  1.4%)   [6 : 7]
   e-/hole pair  2 alpha:  ampl =  0.010179 (  0.0%)   [5 : 8]
   e-/hole pair  1 beta :  ampl =  0.957899 ( 91.8%)   [6 : 7]
   e-/hole pair  2 beta :  ampl =  0.060045 (  0.4%)   [5 : 8]
   Sum of square amplitudes: 0.94

 NATURAL OCCUPATION NUMBERS (higher than 1.0E-05)
            1           2           3           4           5           6
    1   1.9999999   1.9999991   1.9996257   1.9984289   1.9918003   1.9758773
            7           8           9          10
    1   1.9649962   1.0172190   1.0067867   0.0452668

  Amplitudes : 
  
 | HOLE  | ALPHA  | BETA   | PART  |    AMPLITUDE 
--------------------------------------------------
 |       | 111110 | 110010 |       |     9.6548332933674E-01
 |       | 111101 | 111000 |       |    -1.0364183400275E-01
 |   4   | 111110 | 111010 |       |    -1.4469889117256E-01
 |   4   | 110111 | 111010 |       |     1.0582746319182E-01
--------------------------------------------------
*** Contributions RASCI wfn    Active:  95.62
                                 Hole:   4.38
                                 Part:   0.00

      Mulliken population analysis 
 ---------------------------------------------------
   Atom    Charge (a.u.)   Spin (a.u.)  
 ---------------------------------------------------
   1  N   -0.101500        1.549129 
   2  F    0.101500        0.450871 
 ---------------------------------------------------
   Sum:   -0.000000        2.000000 
 ---------------------------------------------------
 
  
 NATURAL OCCUPATION NUMBERS (higher than 1.0E-05)
            1           2           3           4           5           6
    1   1.9999999   1.9999991   1.9996257   1.9984289   1.9918003   1.9758773
            7           8           9          10
    1   1.9649962   1.0172190   1.0067867   0.0452668
  
*** Unpaired Electrons
 Yamaguchi Nd:         2.22
 Head-Gordon Nu:       2.09
 Head-Gordon Nu_nl:    2.01
  
**************************************************
 RAS-CI total energy for state   3:   -151.507940886554
  Excitation energy (eV) =  7.606964002694
  State symmetry: B2    (C2v      )
  <S^2>      :  2.0000
  Dipole Moment:   -0.0000 X    -0.0000 Y    -0.1656 Z
  Trans. Moment:    0.3544 X    -0.0041 Y     0.0000 Z
  Strength   :  0.023405
  Natural transition orbitals ( 1 -> 3 ):
   e-/hole pair  1 alpha:  ampl =  0.118217 (  1.4%)   [6 : 7]
   e-/hole pair  2 alpha:  ampl =  0.010179 (  0.0%)   [5 : 8]
   e-/hole pair  1 beta :  ampl =  0.957899 ( 91.8%)   [6 : 7]
   e-/hole pair  2 beta :  ampl =  0.060045 (  0.4%)   [5 : 8]
   Sum of square amplitudes: 0.94

 NATURAL OCCUPATION NUMBERS (higher than 1.0E-05)
            1           2           3           4           5           6
    1   1.9999999   1.9999991   1.9996257   1.9984289   1.9918003   1.9758773
            7           8           9          10
    1   1.9649962   1.0172191   1.0067867   0.0452667

  Amplitudes : 
  
 | HOLE  | ALPHA  | BETA   | PART  |    AMPLITUDE 
--------------------------------------------------
 |       | 111110 | 110100 |       |     9.6548332795134E-01
 |       | 111011 | 111000 |       |     1.0364177488279E-01
 |   4   | 111110 | 111100 |       |    -1.4469893327253E-01
 |   4   | 110111 | 111100 |       |     1.0582748268441E-01
--------------------------------------------------
*** Contributions RASCI wfn    Active:  95.62
                                 Hole:   4.38
                                 Part:   0.00

      Mulliken population analysis 
 ---------------------------------------------------
   Atom    Charge (a.u.)   Spin (a.u.)  
 ---------------------------------------------------
   1  N   -0.101500        1.549129 
   2  F    0.101500        0.450871 
 ---------------------------------------------------
   Sum:   -0.000000        2.000000 
 ---------------------------------------------------
 
  
 NATURAL OCCUPATION NUMBERS (higher than 1.0E-05)
            1           2           3           4           5           6
    1   1.9999999   1.9999991   1.9996257   1.9984289   1.9918003   1.9758773
            7           8           9          10
    1   1.9649962   1.0172191   1.0067867   0.0452667
  
*** Unpaired Electrons
 Yamaguchi Nd:         2.22
 Head-Gordon Nu:       2.09
 Head-Gordon Nu_nl:    2.01
  
**************************************************
 RAS-CI total energy for state   4:   -151.467013367240
  Excitation energy (eV) =  8.720658466237
  Warning: not all configurations have same symmetry
  State symmetry: *A2    (C2v      )
  <S^2>      :  2.0000
  Dipole Moment:    0.0000 X    -0.0000 Y    -1.1824 Z
  Trans. Moment:    0.0000 X    -0.0000 Y     0.0000 Z
  Strength   :  0.000000
  Natural transition orbitals ( 1 -> 4 ):
   e-/hole pair  1 alpha:  ampl =  0.000554 (  0.0%)   [6 : 7]
   e-/hole pair  2 alpha:  ampl =  0.000554 (  0.0%)   [5 : 8]
   e-/hole pair  1 beta :  ampl =  0.651381 ( 42.4%)   [6 : 7]
   e-/hole pair  2 beta :  ampl =  0.651381 ( 42.4%)   [5 : 8]
   Sum of square amplitudes: 0.85

 NATURAL OCCUPATION NUMBERS (higher than 1.0E-05)
            1           2           3           4           5           6
    1   2.0000000   1.9999999   1.9996986   1.9987353   1.9792922   1.5008705
            7           8           9          10
    1   1.5008705   1.4961262   1.4961262   0.0282806

  Amplitudes : 
  
 | HOLE  | ALPHA  | BETA   | PART  |    AMPLITUDE 
--------------------------------------------------
 |       | 111110 | 101100 |       |     1.2234464553771E-01
 |       | 111110 | 101010 |       |     6.4280703139474E-01
 |       | 111110 | 100011 |       |    -1.6360516805302E-01
 |       | 111110 | 011100 |       |     6.4280703139457E-01
 |       | 111110 | 011010 |       |    -1.2234464553757E-01
 |       | 111110 | 010101 |       |    -1.6360516805299E-01
 |       | 110111 | 101010 |       |     1.8636659907105E-01
 |       | 110111 | 011100 |       |     1.8636659907101E-01
--------------------------------------------------
*** Contributions RASCI wfn    Active:  98.98
                                 Hole:   1.02
                                 Part:   0.00

      Mulliken population analysis 
 ---------------------------------------------------
   Atom    Charge (a.u.)   Spin (a.u.)  
 ---------------------------------------------------
   1  N   -0.353629        0.983104 
   2  F    0.353629        1.016896 
 ---------------------------------------------------
   Sum:   -0.000000        2.000000 
 ---------------------------------------------------
 
  
 NATURAL OCCUPATION NUMBERS (higher than 1.0E-05)
            1           2           3           4           5           6
    1   2.0000000   1.9999999   1.9996986   1.9987353   1.9792922   1.5008705
            7           8           9          10
    1   1.5008705   1.4961262   1.4961262   0.0282806
  
*** Unpaired Electrons
 Yamaguchi Nd:         3.11
 Head-Gordon Nu:       2.06
 Head-Gordon Nu_nl:    2.26
  
**************************************************
 RAS-CI total energy for state   5:   -151.467013367240
  Excitation energy (eV) =  8.720658466238
  Warning: not all configurations have same symmetry
  State symmetry: *A1    (C2v      )
  <S^2>      :  2.0000
  Dipole Moment:    0.0000 X     0.0000 Y    -1.1824 Z
  Trans. Moment:    0.0000 X    -0.0000 Y     0.0000 Z
  Strength   :  0.000000
  Natural transition orbitals ( 1 -> 5 ):
   e-/hole pair  1 alpha:  ampl =  0.000554 (  0.0%)   [6 : 7]
   e-/hole pair  2 alpha:  ampl =  0.000554 (  0.0%)   [5 : 8]
   e-/hole pair  1 beta :  ampl =  0.651381 ( 42.4%)   [6 : 7]
   e-/hole pair  2 beta :  ampl =  0.651381 ( 42.4%)   [5 : 8]
   Sum of square amplitudes: 0.85

 NATURAL OCCUPATION NUMBERS (higher than 1.0E-05)
            1           2           3           4           5           6
    1   2.0000000   1.9999999   1.9996986   1.9987353   1.9792922   1.5008705
            7           8           9          10
    1   1.5008705   1.4961262   1.4961262   0.0282806

  Amplitudes : 
  
 | HOLE  | ALPHA  | BETA   | PART  |    AMPLITUDE 
--------------------------------------------------
 |       | 111110 | 101100 |       |     6.4280703139513E-01
 |       | 111110 | 101010 |       |    -1.2234464553755E-01
 |       | 111110 | 100101 |       |    -1.6360516805313E-01
 |       | 111110 | 011100 |       |    -1.2234464553774E-01
 |       | 111110 | 011010 |       |    -6.4280703139418E-01
 |       | 111110 | 010011 |       |     1.6360516805289E-01
 |       | 110111 | 101100 |       |     1.8636659907116E-01
 |       | 110111 | 011010 |       |    -1.8636659907089E-01
--------------------------------------------------
*** Contributions RASCI wfn    Active:  98.98
                                 Hole:   1.02
                                 Part:   0.00

      Mulliken population analysis 
 ---------------------------------------------------
   Atom    Charge (a.u.)   Spin (a.u.)  
 ---------------------------------------------------
   1  N   -0.353629        0.983104 
   2  F    0.353629        1.016896 
 ---------------------------------------------------
   Sum:   -0.000000        2.000000 
 ---------------------------------------------------
 
  
 NATURAL OCCUPATION NUMBERS (higher than 1.0E-05)
            1           2           3           4           5           6
    1   2.0000000   1.9999999   1.9996986   1.9987353   1.9792922   1.5008705
            7           8           9          10
    1   1.5008705   1.4961262   1.4961262   0.0282806
  
*** Unpaired Electrons
 Yamaguchi Nd:         3.11
 Head-Gordon Nu:       2.06
 Head-Gordon Nu_nl:    2.26
  
**************************************************
 RAS-CI total energy for state   6:   -151.463442665489
  Excitation energy (eV) =  8.817822204413
  State symmetry: A1    (C2v      )
  <S^2>      :  2.0000
  Dipole Moment:    0.0000 X    -0.0000 Y    -1.1822 Z
  Trans. Moment:   -0.0000 X    -0.0000 Y    -0.0000 Z
  Strength   :  0.000000
  Natural transition orbitals ( 1 -> 6 ):
   e-/hole pair  1 alpha:  ampl =  0.001295 (  0.0%)   [6 : 7]
   e-/hole pair  2 alpha:  ampl =  0.001295 (  0.0%)   [5 : 8]
   e-/hole pair  1 beta :  ampl =  0.651341 ( 42.4%)   [6 : 7]
   e-/hole pair  2 beta :  ampl =  0.651341 ( 42.4%)   [5 : 8]
   Sum of square amplitudes: 0.85

 NATURAL OCCUPATION NUMBERS (higher than 1.0E-05)
            1           2           3           4           5           6
    1   2.0000000   1.9999998   1.9996660   1.9986020   1.9795816   1.5007671
            7           8           9          10
    1   1.5007671   1.4961048   1.4961048   0.0284066

  Amplitudes : 
  
 | HOLE  | ALPHA  | BETA   | PART  |    AMPLITUDE 
--------------------------------------------------
 |       | 111110 | 101100 |       |     6.5431559290091E-01
 |       | 111110 | 100101 |       |    -1.6665664815097E-01
 |       | 111110 | 011010 |       |     6.5431559290188E-01
 |       | 111110 | 010011 |       |    -1.6665664815122E-01
 |       | 110111 | 101100 |       |     1.8963229522869E-01
 |       | 110111 | 011010 |       |     1.8963229522897E-01
--------------------------------------------------
*** Contributions RASCI wfn    Active:  98.96
                                 Hole:   1.04
                                 Part:   0.00

      Mulliken population analysis 
 ---------------------------------------------------
   Atom    Charge (a.u.)   Spin (a.u.)  
 ---------------------------------------------------
   1  N   -0.353501        0.983154 
   2  F    0.353501        1.016846 
 ---------------------------------------------------
   Sum:   -0.000000        2.000000 
 ---------------------------------------------------
 
  
 NATURAL OCCUPATION NUMBERS (higher than 1.0E-05)
            1           2           3           4           5           6
    1   2.0000000   1.9999998   1.9996660   1.9986020   1.9795816   1.5007671
            7           8           9          10
    1   1.5007671   1.4961048   1.4961048   0.0284066
  
*** Unpaired Electrons
 Yamaguchi Nd:         3.11
 Head-Gordon Nu:       2.06
 Head-Gordon Nu_nl:    2.26
  
**************************************************
 RAS-CI total energy for state   7:   -151.455409613120
  Excitation energy (eV) =  9.036412680917
  State symmetry: B1    (C2v      )
  <S^2>      :  2.0000
  Dipole Moment:   -0.0000 X     0.0000 Y    -0.3931 Z
  Trans. Moment:    0.0012 X     0.1056 Y    -0.0000 Z
  Strength   :  0.002469
  Natural transition orbitals ( 1 -> 7 ):
   e-/hole pair  1 alpha:  ampl =  0.922793 ( 85.2%)   [6 : 7]
   e-/hole pair  2 alpha:  ampl =  0.038559 (  0.1%)   [5 : 8]
   e-/hole pair  1 beta :  ampl =  0.149368 (  2.2%)   [6 : 7]
   e-/hole pair  2 beta :  ampl =  0.035680 (  0.1%)   [5 : 8]
   Sum of square amplitudes: 0.88

 NATURAL OCCUPATION NUMBERS (higher than 1.0E-05)
            1           2           3           4           5           6
    1   2.0000000   1.9999996   1.9990713   1.9950841   1.9719610   1.9449801
            7           8           9          10
    1   1.8625198   1.0266412   1.0006364   0.1991066

  Amplitudes : 
  
 | HOLE  | ALPHA  | BETA   | PART  |    AMPLITUDE 
--------------------------------------------------
 |       | 111110 | 110010 |       |    -1.3261389492685E-01
 |       | 111101 | 111000 |       |    -8.3907703244855E-01
 |       | 111101 | 101010 |       |     2.4539557545414E-01
 |       | 111101 | 011100 |       |    -1.3983630495240E-01
 |       | 101111 | 111000 |       |    -3.6083492329877E-01
 |       | 101111 | 101010 |       |    -1.0468164392155E-01
--------------------------------------------------
*** Contributions RASCI wfn    Active:  98.67
                                 Hole:   1.33
                                 Part:   0.00

      Mulliken population analysis 
 ---------------------------------------------------
   Atom    Charge (a.u.)   Spin (a.u.)  
 ---------------------------------------------------
   1  N   -0.073921        1.619809 
   2  F    0.073921        0.380191 
 ---------------------------------------------------
   Sum:   -0.000000        2.000000 
 ---------------------------------------------------
 
  
 NATURAL OCCUPATION NUMBERS (higher than 1.0E-05)
            1           2           3           4           5           6
    1   2.0000000   1.9999996   1.9990713   1.9950841   1.9719610   1.9449801
            7           8           9          10
    1   1.8625198   1.0266412   1.0006364   0.1991066
  
*** Unpaired Electrons
 Yamaguchi Nd:         2.79
 Head-Gordon Nu:       2.40
 Head-Gordon Nu_nl:    2.21
  
**************************************************
 RAS-CI total energy for state   8:   -151.455409612945
  Excitation energy (eV) =  9.036412685660
  State symmetry: B2    (C2v      )
  <S^2>      :  2.0000
  Dipole Moment:   -0.0000 X     0.0000 Y    -0.3931 Z
  Trans. Moment:   -0.1056 X     0.0012 Y     0.0000 Z
  Strength   :  0.002469
  Natural transition orbitals ( 1 -> 8 ):
   e-/hole pair  1 alpha:  ampl =  0.922793 ( 85.2%)   [6 : 7]
   e-/hole pair  2 alpha:  ampl =  0.038559 (  0.1%)   [5 : 8]
   e-/hole pair  1 beta :  ampl =  0.149368 (  2.2%)   [6 : 7]
   e-/hole pair  2 beta :  ampl =  0.035680 (  0.1%)   [5 : 8]
   Sum of square amplitudes: 0.88

 NATURAL OCCUPATION NUMBERS (higher than 1.0E-05)
            1           2           3           4           5           6
    1   2.0000000   1.9999996   1.9990714   1.9950843   1.9719605   1.9449813
            7           8           9          10
    1   1.8625193   1.0266417   1.0006358   0.1991061

  Amplitudes : 
  
 | HOLE  | ALPHA  | BETA   | PART  |    AMPLITUDE 
--------------------------------------------------
 |       | 111110 | 110100 |       |    -1.3261392076138E-01
 |       | 111011 | 111000 |       |     8.3907621814537E-01
 |       | 111011 | 101010 |       |    -1.3983806537766E-01
 |       | 111011 | 011100 |       |     2.4539705857688E-01
 |       | 011111 | 111000 |       |     3.6083676346995E-01
 |       | 011111 | 011100 |       |    -1.0468111334130E-01
--------------------------------------------------
*** Contributions RASCI wfn    Active:  98.67
                                 Hole:   1.33
                                 Part:   0.00

      Mulliken population analysis 
 ---------------------------------------------------
   Atom    Charge (a.u.)   Spin (a.u.)  
 ---------------------------------------------------
   1  N   -0.073926        1.619806 
   2  F    0.073926        0.380194 
 ---------------------------------------------------
   Sum:   -0.000000        2.000000 
 ---------------------------------------------------
 
  
 NATURAL OCCUPATION NUMBERS (higher than 1.0E-05)
            1           2           3           4           5           6
    1   2.0000000   1.9999996   1.9990714   1.9950843   1.9719605   1.9449813
            7           8           9          10
    1   1.8625193   1.0266417   1.0006358   0.1991061
  
*** Unpaired Electrons
 Yamaguchi Nd:         2.79
 Head-Gordon Nu:       2.40
 Head-Gordon Nu_nl:    2.21
  
**************************************************
 RAS-CI total energy for state   9:   -151.437771999156
  Excitation energy (eV) =  9.516356575658
  State symmetry: A2    (C2v      )
  <S^2>      :  2.0000
  Dipole Moment:   -0.0000 X     0.0000 Y    -0.9945 Z
  Trans. Moment:    0.0000 X    -0.0000 Y     0.3743 Z
  Strength   :  0.032657
  Natural transition orbitals ( 1 -> 9 ):
   e-/hole pair  1 alpha:  ampl =  0.284209 (  8.1%)   [6 : 7]
   e-/hole pair  2 alpha:  ampl =  0.085884 (  0.7%)   [5 : 8]
   e-/hole pair  1 beta :  ampl =  0.602222 ( 36.3%)   [6 : 7]
   e-/hole pair  2 beta :  ampl =  0.602222 ( 36.3%)   [5 : 8]
   Sum of square amplitudes: 0.84

 NATURAL OCCUPATION NUMBERS (higher than 1.0E-05)
            1           2           3           4           5           6
    1   1.9999999   1.9999997   1.9989616   1.9929990   1.8664720   1.6184361
            7           8           9          10
    1   1.6184361   1.3783369   1.3783369   0.1480217

  Amplitudes : 
  
 | HOLE  | ALPHA  | BETA   | PART  |    AMPLITUDE 
--------------------------------------------------
 |       | 111110 | 111000 |       |     1.3687969642485E-01
 |       | 111110 | 110001 |       |    -1.5060793659704E-01
 |       | 111110 | 101010 |       |     6.1542479540039E-01
 |       | 111110 | 100011 |       |    -1.4115609155327E-01
 |       | 111110 | 011100 |       |    -6.1542479539281E-01
 |       | 111110 | 010101 |       |     1.4115609155741E-01
 |       | 111110 | 001110 |       |     1.3166122486760E-01
 |       | 110111 | 111000 |       |    -2.5358739616583E-01
 |       | 110111 | 101010 |       |     1.5338443869035E-01
 |       | 110111 | 011100 |       |    -1.5338443869734E-01
--------------------------------------------------
*** Contributions RASCI wfn    Active:  98.09
                                 Hole:   1.91
                                 Part:   0.00

      Mulliken population analysis 
 ---------------------------------------------------
   Atom    Charge (a.u.)   Spin (a.u.)  
 ---------------------------------------------------
   1  N   -0.283285        1.234788 
   2  F    0.283285        0.765212 
 ---------------------------------------------------
   Sum:   -0.000000        2.000000 
 ---------------------------------------------------
 
  
 NATURAL OCCUPATION NUMBERS (higher than 1.0E-05)
            1           2           3           4           5           6
    1   1.9999999   1.9999997   1.9989616   1.9929990   1.8664720   1.6184361
            7           8           9          10
    1   1.6184361   1.3783369   1.3783369   0.1480217
  
*** Unpaired Electrons
 Yamaguchi Nd:         3.49
 Head-Gordon Nu:       2.30
 Head-Gordon Nu_nl:    2.37
  
**************************************************
 RAS-CI total energy for state  10:   -151.258297518915
  Excitation energy (eV) = 14.400105660405
  State symmetry: B1    (C2v      )
  <S^2>      :  2.0000
  Dipole Moment:   -0.0000 X    -0.0000 Y    -0.8005 Z
  Trans. Moment:    0.0005 X     0.0431 Y    -0.0000 Z
  Strength   :  0.000656
  Natural transition orbitals ( 1 -> 10 ):
   e-/hole pair  1 alpha:  ampl =  0.648862 ( 42.1%)   [6 : 7]
   e-/hole pair  2 alpha:  ampl =  0.053964 (  0.3%)   [5 : 8]
   e-/hole pair  1 beta :  ampl =  0.173423 (  3.0%)   [6 : 7]
   e-/hole pair  2 beta :  ampl =  0.121088 (  1.5%)   [5 : 8]
   Sum of square amplitudes: 0.47

 NATURAL OCCUPATION NUMBERS (higher than 1.0E-05)
            1           2           3           4           5           6
    1   1.9999999   1.9999998   1.9991181   1.9855991   1.9733292   1.7795992
            7           8           9          10
    1   1.3302915   1.1736606   1.0005300   0.7578726

  Amplitudes : 
  
 | HOLE  | ALPHA  | BETA   | PART  |    AMPLITUDE 
--------------------------------------------------
 |       | 111110 | 101001 |       |    -1.7735528351048E-01
 |       | 111101 | 111000 |       |     2.1977735916408E-01
 |       | 111101 | 011100 |       |     4.2863076522154E-01
 |       | 111011 | 101100 |       |    -5.0797187630373E-01
 |       | 111011 | 011010 |       |    -1.5005063905773E-01
 |       | 101111 | 111000 |       |    -6.1461763182243E-01
 |       | 101111 | 110001 |       |    -1.0386641975262E-01
 |   4   | 111110 | 111010 |       |     1.2012795667386E-01
--------------------------------------------------
*** Contributions RASCI wfn    Active:  97.47
                                 Hole:   2.53
                                 Part:   0.00

      Mulliken population analysis 
 ---------------------------------------------------
   Atom    Charge (a.u.)   Spin (a.u.)  
 ---------------------------------------------------
   1  N   -0.207835        1.491340 
   2  F    0.207835        0.508660 
 ---------------------------------------------------
   Sum:   -0.000000        2.000000 
 ---------------------------------------------------
 
  
 NATURAL OCCUPATION NUMBERS (higher than 1.0E-05)
            1           2           3           4           5           6
    1   1.9999999   1.9999998   1.9991181   1.9855991   1.9733292   1.7795992
            7           8           9          10
    1   1.3302915   1.1736606   1.0005300   0.7578726
  
*** Unpaired Electrons
 Yamaguchi Nd:         4.28
 Head-Gordon Nu:       3.52
 Head-Gordon Nu_nl:    3.78
  
--------------------------------------------------
 Interstate Transition Properties
--------------------------------------------------
State A: Root  1
State B: Root  2
  
Angular momentum components
< B | Lx | A > =    -1.045573190i
< B | Ly | A > =     0.012172076i
< B | Lz | A > =    -0.000000000i
  
Norm of one-particle transition density matrix
||gamma^AB||_total       =  0.967125
||gamma^AB||_symmetrized =  0.684588
||gamma^AB||_anti-symm   =  0.683132
  
Spin-orbit couplings
 Using HF (reference) density for the 2-elec mean-field SOC contribution
KET: S',Sz' (Root   1) =  1.000 1.000
BRA: S ,Sz  (Root   2) =  1.000 1.000
Clebsh-Gordan coefficient: < 1.000, 1.000; 1.000, 0.000| 1.000, 1.000> =  0.707
 Computing 1e-SO integrals
 1e Reduced matrix elements (cm-1)
<S|| Hso(L-) ||S'> =     0.6672480866   -57.3161632291
<S|| Hso(L0) ||S'> =     0.0000000000    -0.0000000000
<S|| Hso(L+) ||S'> =     0.6672480866    57.3161632291
 1-elec SOC matrix (cm-1): < B(S,Sz) | Hso(1e) | A(S',Sz') >
                     |Sz'=-1.00>              |Sz'= 0.00>              |Sz'= 1.00>
 <Sz=-1.00|   -0.000000    0.000000i     0.471816   40.528648i     0.000000    0.000000i
 <Sz= 0.00|   -0.471816   40.528648i    -0.000000   -0.000000i     0.471816   40.528648i
 <Sz= 1.00|    0.000000   -0.000000i    -0.471816   40.528648i    -0.000000   -0.000000i
1-elec SOCC =    81.062787854 cm-1
 Computing 2e-SOMF integrals
 Averagin spin alpha/beta reference densities
 2e-SOMF Reduced matrix elements (cm-1)
<S|| Hso(L-) ||S'> =    -0.2726087374    23.4169077518
<S|| Hso(L0) ||S'> =     0.0000000000     0.0000000000
<S|| Hso(L+) ||S'> =    -0.2726087374   -23.4169077518
 2-elec mean-field SOC matrix (cm-1): < B(S,Sz) | Hso(2e-mf) | A(S',Sz') >
                     |Sz'=-1.00>              |Sz'= 0.00>              |Sz'= 1.00>
 <Sz=-1.00|    0.000000   -0.000000i    -0.192763  -16.558254i    -0.000000   -0.000000i
 <Sz= 0.00|    0.192763  -16.558254i     0.000000    0.000000i    -0.192763  -16.558254i
 <Sz= 1.00|   -0.000000    0.000000i     0.192763  -16.558254i     0.000000    0.000000i
 Total mean-field SOC matrix (cm-1): < B(S,Sz) | Hsomf | A(S',Sz') >
                     |Sz'=-1.00>              |Sz'= 0.00>              |Sz'= 1.00>
 <Sz=-1.00|   -0.000000    0.000000i     0.279052   23.970393i     0.000000    0.000000i
 <Sz= 0.00|   -0.279052   23.970393i    -0.000000   -0.000000i     0.279052   23.970393i
 <Sz= 1.00|    0.000000   -0.000000i    -0.279052   23.970393i    -0.000000   -0.000000i
Mean-Field SOCC =    47.944035336 cm-1
   
**************************************************
State A: Root  1
State B: Root  3
  
Angular momentum components
< B | Lx | A > =    -0.012172077i
< B | Ly | A > =    -1.045573256i
< B | Lz | A > =     0.000000000i
  
Norm of one-particle transition density matrix
||gamma^AB||_total       =  0.967125
||gamma^AB||_symmetrized =  0.684588
||gamma^AB||_anti-symm   =  0.683132
  
Spin-orbit couplings
 Using HF (reference) density for the 2-elec mean-field SOC contribution
KET: S',Sz' (Root   1) =  1.000 1.000
BRA: S ,Sz  (Root   3) =  1.000 1.000
Clebsh-Gordan coefficient: < 1.000, 1.000; 1.000, 0.000| 1.000, 1.000> =  0.707
 Reading 1e-SO integrals
 1e Reduced matrix elements (cm-1)
<S|| Hso(L-) ||S'> =   -57.3161582206    -0.6672480280
<S|| Hso(L0) ||S'> =     0.0000000000    -0.0000000000
<S|| Hso(L+) ||S'> =   -57.3161582206     0.6672480280
 1-elec SOC matrix (cm-1): < B(S,Sz) | Hso(1e) | A(S',Sz') >
                     |Sz'=-1.00>              |Sz'= 0.00>              |Sz'= 1.00>
 <Sz=-1.00|    0.000000    0.000000i   -40.528644    0.471816i    -0.000000    0.000000i
 <Sz= 0.00|   40.528644    0.471816i     0.000000   -0.000000i   -40.528644    0.471816i
 <Sz= 1.00|   -0.000000   -0.000000i    40.528644    0.471816i     0.000000   -0.000000i
1-elec SOCC =    81.062780770 cm-1
 Reading 2e-SOMF integrals
 2e-SOMF Reduced matrix elements (cm-1)
<S|| Hso(L-) ||S'> =    23.4169059431     0.2726087162
<S|| Hso(L0) ||S'> =     0.0000000000     0.0000000000
<S|| Hso(L+) ||S'> =    23.4169059431    -0.2726087162
 2-elec mean-field SOC matrix (cm-1): < B(S,Sz) | Hso(2e-mf) | A(S',Sz') >
                     |Sz'=-1.00>              |Sz'= 0.00>              |Sz'= 1.00>
 <Sz=-1.00|   -0.000000   -0.000000i    16.558253   -0.192763i     0.000000   -0.000000i
 <Sz= 0.00|  -16.558253   -0.192763i    -0.000000    0.000000i    16.558253   -0.192763i
 <Sz= 1.00|    0.000000    0.000000i   -16.558253   -0.192763i    -0.000000    0.000000i
 Total mean-field SOC matrix (cm-1): < B(S,Sz) | Hsomf | A(S',Sz') >
                     |Sz'=-1.00>              |Sz'= 0.00>              |Sz'= 1.00>
 <Sz=-1.00|    0.000000    0.000000i   -23.970391    0.279052i    -0.000000    0.000000i
 <Sz= 0.00|   23.970391    0.279052i     0.000000   -0.000000i   -23.970391    0.279052i
 <Sz= 1.00|   -0.000000   -0.000000i    23.970391    0.279052i     0.000000   -0.000000i
Mean-Field SOCC =    47.944030810 cm-1
   
**************************************************
State A: Root  1
State B: Root  4
  
Angular momentum components
< B | Lx | A > =    -0.000000000i
< B | Ly | A > =    -0.000000000i
< B | Lz | A > =     0.000000000i
  
Norm of one-particle transition density matrix
||gamma^AB||_total       =  0.922992
||gamma^AB||_symmetrized =  0.692116
||gamma^AB||_anti-symm   =  0.610647
  
Spin-orbit couplings
 Using HF (reference) density for the 2-elec mean-field SOC contribution
KET: S',Sz' (Root   1) =  1.000 1.000
BRA: S ,Sz  (Root   4) =  1.000 1.000
Clebsh-Gordan coefficient: < 1.000, 1.000; 1.000, 0.000| 1.000, 1.000> =  0.707
 Reading 1e-SO integrals
 1e Reduced matrix elements (cm-1)
<S|| Hso(L-) ||S'> =    -0.0000000000     0.0000000000
<S|| Hso(L0) ||S'> =     0.0000000000    -0.0000000000
<S|| Hso(L+) ||S'> =    -0.0000000000    -0.0000000000
 1-elec SOC matrix (cm-1): < B(S,Sz) | Hso(1e) | A(S',Sz') >
                     |Sz'=-1.00>              |Sz'= 0.00>              |Sz'= 1.00>
 <Sz=-1.00|    0.000000    0.000000i    -0.000000   -0.000000i    -0.000000   -0.000000i
 <Sz= 0.00|    0.000000   -0.000000i     0.000000   -0.000000i    -0.000000   -0.000000i
 <Sz= 1.00|   -0.000000   -0.000000i     0.000000   -0.000000i     0.000000   -0.000000i
1-elec SOCC =     0.000000000 cm-1
 Reading 2e-SOMF integrals
 2e-SOMF Reduced matrix elements (cm-1)
<S|| Hso(L-) ||S'> =     0.0000000000    -0.0000000000
<S|| Hso(L0) ||S'> =     0.0000000000     0.0000000000
<S|| Hso(L+) ||S'> =     0.0000000000     0.0000000000
 2-elec mean-field SOC matrix (cm-1): < B(S,Sz) | Hso(2e-mf) | A(S',Sz') >
                     |Sz'=-1.00>              |Sz'= 0.00>              |Sz'= 1.00>
 <Sz=-1.00|   -0.000000   -0.000000i     0.000000    0.000000i     0.000000    0.000000i
 <Sz= 0.00|   -0.000000    0.000000i    -0.000000   -0.000000i     0.000000    0.000000i
 <Sz= 1.00|    0.000000    0.000000i    -0.000000    0.000000i    -0.000000    0.000000i
 Total mean-field SOC matrix (cm-1): < B(S,Sz) | Hsomf | A(S',Sz') >
                     |Sz'=-1.00>              |Sz'= 0.00>              |Sz'= 1.00>
 <Sz=-1.00|    0.000000    0.000000i    -0.000000   -0.000000i    -0.000000   -0.000000i
 <Sz= 0.00|    0.000000   -0.000000i     0.000000   -0.000000i    -0.000000   -0.000000i
 <Sz= 1.00|   -0.000000   -0.000000i     0.000000   -0.000000i     0.000000   -0.000000i
Mean-Field SOCC =     0.000000000 cm-1
   
**************************************************
State A: Root  1
State B: Root  5
  
Angular momentum components
< B | Lx | A > =    -0.000000000i
< B | Ly | A > =    -0.000000000i
< B | Lz | A > =     0.000000000i
  
Norm of one-particle transition density matrix
||gamma^AB||_total       =  0.922992
||gamma^AB||_symmetrized =  0.692116
||gamma^AB||_anti-symm   =  0.610647
  
Spin-orbit couplings
 Using HF (reference) density for the 2-elec mean-field SOC contribution
KET: S',Sz' (Root   1) =  1.000 1.000
BRA: S ,Sz  (Root   5) =  1.000 1.000
Clebsh-Gordan coefficient: < 1.000, 1.000; 1.000, 0.000| 1.000, 1.000> =  0.707
 Reading 1e-SO integrals
 1e Reduced matrix elements (cm-1)
<S|| Hso(L-) ||S'> =     0.0000000000    -0.0000000000
<S|| Hso(L0) ||S'> =     0.0000000000    -0.0000000001
<S|| Hso(L+) ||S'> =     0.0000000000     0.0000000000
 1-elec SOC matrix (cm-1): < B(S,Sz) | Hso(1e) | A(S',Sz') >
                     |Sz'=-1.00>              |Sz'= 0.00>              |Sz'= 1.00>
 <Sz=-1.00|   -0.000000    0.000000i     0.000000    0.000000i     0.000000   -0.000000i
 <Sz= 0.00|   -0.000000    0.000000i    -0.000000   -0.000000i     0.000000    0.000000i
 <Sz= 1.00|    0.000000   -0.000000i    -0.000000    0.000000i    -0.000000   -0.000000i
1-elec SOCC =     0.000000000 cm-1
 Reading 2e-SOMF integrals
 2e-SOMF Reduced matrix elements (cm-1)
<S|| Hso(L-) ||S'> =    -0.0000000000     0.0000000000
<S|| Hso(L0) ||S'> =     0.0000000000     0.0000000000
<S|| Hso(L+) ||S'> =    -0.0000000000    -0.0000000000
 2-elec mean-field SOC matrix (cm-1): < B(S,Sz) | Hso(2e-mf) | A(S',Sz') >
                     |Sz'=-1.00>              |Sz'= 0.00>              |Sz'= 1.00>
 <Sz=-1.00|    0.000000   -0.000000i    -0.000000   -0.000000i    -0.000000    0.000000i
 <Sz= 0.00|    0.000000   -0.000000i     0.000000    0.000000i    -0.000000   -0.000000i
 <Sz= 1.00|   -0.000000    0.000000i     0.000000   -0.000000i     0.000000    0.000000i
 Total mean-field SOC matrix (cm-1): < B(S,Sz) | Hsomf | A(S',Sz') >
                     |Sz'=-1.00>              |Sz'= 0.00>              |Sz'= 1.00>
 <Sz=-1.00|   -0.000000    0.000000i     0.000000    0.000000i     0.000000   -0.000000i
 <Sz= 0.00|   -0.000000    0.000000i    -0.000000   -0.000000i     0.000000    0.000000i
 <Sz= 1.00|    0.000000   -0.000000i    -0.000000    0.000000i    -0.000000   -0.000000i
Mean-Field SOCC =     0.000000000 cm-1
   
**************************************************
State A: Root  1
State B: Root  6
  
Angular momentum components
< B | Lx | A > =     0.000000000i
< B | Ly | A > =     0.000000000i
< B | Lz | A > =    -0.000000000i
  
Norm of one-particle transition density matrix
||gamma^AB||_total       =  0.922937
||gamma^AB||_symmetrized =  0.610602
||gamma^AB||_anti-symm   =  0.692083
  
Spin-orbit couplings
 Using HF (reference) density for the 2-elec mean-field SOC contribution
KET: S',Sz' (Root   1) =  1.000 1.000
BRA: S ,Sz  (Root   6) =  1.000 1.000
Clebsh-Gordan coefficient: < 1.000, 1.000; 1.000, 0.000| 1.000, 1.000> =  0.707
 Reading 1e-SO integrals
 1e Reduced matrix elements (cm-1)
<S|| Hso(L-) ||S'> =     0.0000000000    -0.0000000000
<S|| Hso(L0) ||S'> =     0.0000000000   -71.0296893528
<S|| Hso(L+) ||S'> =     0.0000000000     0.0000000000
 1-elec SOC matrix (cm-1): < B(S,Sz) | Hso(1e) | A(S',Sz') >
                     |Sz'=-1.00>              |Sz'= 0.00>              |Sz'= 1.00>
 <Sz=-1.00|   -0.000000   50.225575i     0.000000    0.000000i     0.000000   -0.000000i
 <Sz= 0.00|   -0.000000    0.000000i    -0.000000   -0.000000i     0.000000    0.000000i
 <Sz= 1.00|    0.000000   -0.000000i    -0.000000    0.000000i    -0.000000  -50.225575i
1-elec SOCC =    71.029689353 cm-1
 Reading 2e-SOMF integrals
 2e-SOMF Reduced matrix elements (cm-1)
<S|| Hso(L-) ||S'> =    -0.0000000000     0.0000000000
<S|| Hso(L0) ||S'> =     0.0000000000    20.5773078901
<S|| Hso(L+) ||S'> =    -0.0000000000    -0.0000000000
 2-elec mean-field SOC matrix (cm-1): < B(S,Sz) | Hso(2e-mf) | A(S',Sz') >
                     |Sz'=-1.00>              |Sz'= 0.00>              |Sz'= 1.00>
 <Sz=-1.00|    0.000000  -14.550354i    -0.000000   -0.000000i    -0.000000    0.000000i
 <Sz= 0.00|    0.000000   -0.000000i     0.000000    0.000000i    -0.000000   -0.000000i
 <Sz= 1.00|   -0.000000    0.000000i     0.000000   -0.000000i     0.000000   14.550354i
 Total mean-field SOC matrix (cm-1): < B(S,Sz) | Hsomf | A(S',Sz') >
                     |Sz'=-1.00>              |Sz'= 0.00>              |Sz'= 1.00>
 <Sz=-1.00|   -0.000000   35.675221i     0.000000    0.000000i     0.000000   -0.000000i
 <Sz= 0.00|   -0.000000    0.000000i    -0.000000   -0.000000i     0.000000    0.000000i
 <Sz= 1.00|    0.000000   -0.000000i    -0.000000    0.000000i    -0.000000  -35.675221i
Mean-Field SOCC =    50.452381463 cm-1
   
**************************************************
State A: Root  1
State B: Root  7
  
Angular momentum components
< B | Lx | A > =     0.369203752i
< B | Ly | A > =    -0.004320274i
< B | Lz | A > =     0.000000000i
  
Norm of one-particle transition density matrix
||gamma^AB||_total       =  0.936728
||gamma^AB||_symmetrized =  0.666404
||gamma^AB||_anti-symm   =  0.658305
  
Spin-orbit couplings
 Using HF (reference) density for the 2-elec mean-field SOC contribution
KET: S',Sz' (Root   1) =  1.000 1.000
BRA: S ,Sz  (Root   7) =  1.000 1.000
Clebsh-Gordan coefficient: < 1.000, 1.000; 1.000, 0.000| 1.000, 1.000> =  0.707
 Reading 1e-SO integrals
 1e Reduced matrix elements (cm-1)
<S|| Hso(L-) ||S'> =    -0.4181089983    35.7309274601
<S|| Hso(L0) ||S'> =     0.0000000000    -0.0000000000
<S|| Hso(L+) ||S'> =    -0.4181089983   -35.7309274601
 1-elec SOC matrix (cm-1): < B(S,Sz) | Hso(1e) | A(S',Sz') >
                     |Sz'=-1.00>              |Sz'= 0.00>              |Sz'= 1.00>
 <Sz=-1.00|    0.000000    0.000000i    -0.295648  -25.265581i    -0.000000   -0.000000i
 <Sz= 0.00|    0.295648  -25.265581i     0.000000    0.000000i    -0.295648  -25.265581i
 <Sz= 1.00|   -0.000000    0.000000i     0.295648  -25.265581i     0.000000   -0.000000i
1-elec SOCC =    50.534621643 cm-1
 Reading 2e-SOMF integrals
 2e-SOMF Reduced matrix elements (cm-1)
<S|| Hso(L-) ||S'> =     0.1212529747   -10.3620856052
<S|| Hso(L0) ||S'> =     0.0000000000     0.0000000000
<S|| Hso(L+) ||S'> =     0.1212529747    10.3620856052
 2-elec mean-field SOC matrix (cm-1): < B(S,Sz) | Hso(2e-mf) | A(S',Sz') >
                     |Sz'=-1.00>              |Sz'= 0.00>              |Sz'= 1.00>
 <Sz=-1.00|   -0.000000    0.000000i     0.085739    7.327101i     0.000000    0.000000i
 <Sz= 0.00|   -0.085739    7.327101i    -0.000000   -0.000000i     0.085739    7.327101i
 <Sz= 1.00|    0.000000   -0.000000i    -0.085739    7.327101i    -0.000000    0.000000i
 Total mean-field SOC matrix (cm-1): < B(S,Sz) | Hsomf | A(S',Sz') >
                     |Sz'=-1.00>              |Sz'= 0.00>              |Sz'= 1.00>
 <Sz=-1.00|    0.000000    0.000000i    -0.209909  -17.938480i    -0.000000   -0.000000i
 <Sz= 0.00|    0.209909  -17.938480i     0.000000    0.000000i    -0.209909  -17.938480i
 <Sz= 1.00|   -0.000000    0.000000i     0.209909  -17.938480i     0.000000   -0.000000i
Mean-Field SOCC =    35.879416399 cm-1
   
**************************************************
State A: Root  1
State B: Root  8
  
Angular momentum components
< B | Lx | A > =     0.004320268i
< B | Ly | A > =     0.369203230i
< B | Lz | A > =    -0.000000000i
  
Norm of one-particle transition density matrix
||gamma^AB||_total       =  0.936729
||gamma^AB||_symmetrized =  0.666404
||gamma^AB||_anti-symm   =  0.658305
  
Spin-orbit couplings
 Using HF (reference) density for the 2-elec mean-field SOC contribution
KET: S',Sz' (Root   1) =  1.000 1.000
BRA: S ,Sz  (Root   8) =  1.000 1.000
Clebsh-Gordan coefficient: < 1.000, 1.000; 1.000, 0.000| 1.000, 1.000> =  0.707
 Reading 1e-SO integrals
 1e Reduced matrix elements (cm-1)
<S|| Hso(L-) ||S'> =    35.7310800232     0.4181107745
<S|| Hso(L0) ||S'> =     0.0000000000     0.0000000000
<S|| Hso(L+) ||S'> =    35.7310800232    -0.4181107745
 1-elec SOC matrix (cm-1): < B(S,Sz) | Hso(1e) | A(S',Sz') >
                     |Sz'=-1.00>              |Sz'= 0.00>              |Sz'= 1.00>
 <Sz=-1.00|   -0.000000   -0.000000i    25.265689   -0.295649i     0.000000   -0.000000i
 <Sz= 0.00|  -25.265689   -0.295649i    -0.000000    0.000000i    25.265689   -0.295649i
 <Sz= 1.00|    0.000000    0.000000i   -25.265689   -0.295649i    -0.000000    0.000000i
1-elec SOCC =    50.534837414 cm-1
 Reading 2e-SOMF integrals
 2e-SOMF Reduced matrix elements (cm-1)
<S|| Hso(L-) ||S'> =   -10.3621411088    -0.1212536209
<S|| Hso(L0) ||S'> =     0.0000000000    -0.0000000000
<S|| Hso(L+) ||S'> =   -10.3621411088     0.1212536209
 2-elec mean-field SOC matrix (cm-1): < B(S,Sz) | Hso(2e-mf) | A(S',Sz') >
                     |Sz'=-1.00>              |Sz'= 0.00>              |Sz'= 1.00>
 <Sz=-1.00|    0.000000    0.000000i    -7.327140    0.085739i    -0.000000    0.000000i
 <Sz= 0.00|    7.327140    0.085739i     0.000000   -0.000000i    -7.327140    0.085739i
 <Sz= 1.00|   -0.000000   -0.000000i     7.327140    0.085739i     0.000000   -0.000000i
 Total mean-field SOC matrix (cm-1): < B(S,Sz) | Hsomf | A(S',Sz') >
                     |Sz'=-1.00>              |Sz'= 0.00>              |Sz'= 1.00>
 <Sz=-1.00|   -0.000000   -0.000000i    17.938549   -0.209910i     0.000000   -0.000000i
 <Sz= 0.00|  -17.938549   -0.209910i    -0.000000    0.000000i    17.938549   -0.209910i
 <Sz= 1.00|    0.000000    0.000000i   -17.938549   -0.209910i    -0.000000    0.000000i
Mean-Field SOCC =    35.879553671 cm-1
   
**************************************************
State A: Root  1
State B: Root  9
  
Angular momentum components
< B | Lx | A > =    -0.000000000i
< B | Ly | A > =    -0.000000000i
< B | Lz | A > =    -0.000000000i
  
Norm of one-particle transition density matrix
||gamma^AB||_total       =  0.919040
||gamma^AB||_symmetrized =  0.674594
||gamma^AB||_anti-symm   =  0.624146
  
Spin-orbit couplings
 Using HF (reference) density for the 2-elec mean-field SOC contribution
KET: S',Sz' (Root   1) =  1.000 1.000
BRA: S ,Sz  (Root   9) =  1.000 1.000
Clebsh-Gordan coefficient: < 1.000, 1.000; 1.000, 0.000| 1.000, 1.000> =  0.707
 Reading 1e-SO integrals
 1e Reduced matrix elements (cm-1)
<S|| Hso(L-) ||S'> =    -0.0000000000    -0.0000000000
<S|| Hso(L0) ||S'> =     0.0000000000    -0.0000000000
<S|| Hso(L+) ||S'> =    -0.0000000000     0.0000000000
 1-elec SOC matrix (cm-1): < B(S,Sz) | Hso(1e) | A(S',Sz') >
                     |Sz'=-1.00>              |Sz'= 0.00>              |Sz'= 1.00>
 <Sz=-1.00|    0.000000    0.000000i    -0.000000    0.000000i    -0.000000    0.000000i
 <Sz= 0.00|    0.000000    0.000000i     0.000000   -0.000000i    -0.000000    0.000000i
 <Sz= 1.00|   -0.000000   -0.000000i     0.000000    0.000000i     0.000000   -0.000000i
1-elec SOCC =     0.000000000 cm-1
 Reading 2e-SOMF integrals
 2e-SOMF Reduced matrix elements (cm-1)
<S|| Hso(L-) ||S'> =     0.0000000000     0.0000000000
<S|| Hso(L0) ||S'> =     0.0000000000     0.0000000000
<S|| Hso(L+) ||S'> =     0.0000000000    -0.0000000000
 2-elec mean-field SOC matrix (cm-1): < B(S,Sz) | Hso(2e-mf) | A(S',Sz') >
                     |Sz'=-1.00>              |Sz'= 0.00>              |Sz'= 1.00>
 <Sz=-1.00|   -0.000000   -0.000000i     0.000000   -0.000000i     0.000000   -0.000000i
 <Sz= 0.00|   -0.000000   -0.000000i    -0.000000    0.000000i     0.000000   -0.000000i
 <Sz= 1.00|    0.000000    0.000000i    -0.000000   -0.000000i    -0.000000    0.000000i
 Total mean-field SOC matrix (cm-1): < B(S,Sz) | Hsomf | A(S',Sz') >
                     |Sz'=-1.00>              |Sz'= 0.00>              |Sz'= 1.00>
 <Sz=-1.00|    0.000000    0.000000i    -0.000000    0.000000i    -0.000000    0.000000i
 <Sz= 0.00|    0.000000    0.000000i     0.000000   -0.000000i    -0.000000    0.000000i
 <Sz= 1.00|   -0.000000   -0.000000i     0.000000    0.000000i     0.000000   -0.000000i
Mean-Field SOCC =     0.000000000 cm-1
   
**************************************************
State A: Root  1
State B: Root 10
  
Angular momentum components
< B | Lx | A > =    -0.620109636i
< B | Ly | A > =     0.007237831i
< B | Lz | A > =     0.000000000i
  
Norm of one-particle transition density matrix
||gamma^AB||_total       =  0.684871
||gamma^AB||_symmetrized =  0.481051
||gamma^AB||_anti-symm   =  0.487481
  
Spin-orbit couplings
 Using HF (reference) density for the 2-elec mean-field SOC contribution
KET: S',Sz' (Root   1) =  1.000 1.000
BRA: S ,Sz  (Root  10) =  1.000 1.000
Clebsh-Gordan coefficient: < 1.000, 1.000; 1.000, 0.000| 1.000, 1.000> =  0.707
 Reading 1e-SO integrals
 1e Reduced matrix elements (cm-1)
<S|| Hso(L-) ||S'> =    -0.5148177403    44.1076140127
<S|| Hso(L0) ||S'> =     0.0000000000     0.0000000000
<S|| Hso(L+) ||S'> =    -0.5148177403   -44.1076140127
 1-elec SOC matrix (cm-1): < B(S,Sz) | Hso(1e) | A(S',Sz') >
                     |Sz'=-1.00>              |Sz'= 0.00>              |Sz'= 1.00>
 <Sz=-1.00|    0.000000   -0.000000i    -0.364031  -31.188793i    -0.000000   -0.000000i
 <Sz= 0.00|    0.364031  -31.188793i     0.000000    0.000000i    -0.364031  -31.188793i
 <Sz= 1.00|   -0.000000    0.000000i     0.364031  -31.188793i     0.000000    0.000000i
1-elec SOCC =    62.381834715 cm-1
 Reading 2e-SOMF integrals
 2e-SOMF Reduced matrix elements (cm-1)
<S|| Hso(L-) ||S'> =     0.1895616730   -16.2409187740
<S|| Hso(L0) ||S'> =     0.0000000000    -0.0000000000
<S|| Hso(L+) ||S'> =     0.1895616730    16.2409187740
 2-elec mean-field SOC matrix (cm-1): < B(S,Sz) | Hso(2e-mf) | A(S',Sz') >
                     |Sz'=-1.00>              |Sz'= 0.00>              |Sz'= 1.00>
 <Sz=-1.00|   -0.000000    0.000000i     0.134040   11.484064i     0.000000    0.000000i
 <Sz= 0.00|   -0.134040   11.484064i    -0.000000   -0.000000i     0.134040   11.484064i
 <Sz= 1.00|    0.000000   -0.000000i    -0.134040   11.484064i    -0.000000   -0.000000i
 Total mean-field SOC matrix (cm-1): < B(S,Sz) | Hsomf | A(S',Sz') >
                     |Sz'=-1.00>              |Sz'= 0.00>              |Sz'= 1.00>
 <Sz=-1.00|    0.000000   -0.000000i    -0.229991  -19.704729i    -0.000000   -0.000000i
 <Sz= 0.00|    0.229991  -19.704729i     0.000000    0.000000i    -0.229991  -19.704729i
 <Sz= 1.00|   -0.000000    0.000000i     0.229991  -19.704729i     0.000000    0.000000i
Mean-Field SOCC =    39.412142673 cm-1
   
**************************************************
State A: Root  2
State B: Root  1
  
Angular momentum components
< B | Lx | A > =     1.045573190i
< B | Ly | A > =    -0.012172076i
< B | Lz | A > =     0.000000000i
  
Norm of one-particle transition density matrix
||gamma^AB||_total       =  0.967125
||gamma^AB||_symmetrized =  0.684588
||gamma^AB||_anti-symm   =  0.683132
  
Spin-orbit couplings
 Using HF (reference) density for the 2-elec mean-field SOC contribution
KET: S',Sz' (Root   2) =  1.000 1.000
BRA: S ,Sz  (Root   1) =  1.000 1.000
Clebsh-Gordan coefficient: < 1.000, 1.000; 1.000, 0.000| 1.000, 1.000> =  0.707
 Reading 1e-SO integrals
 1e Reduced matrix elements (cm-1)
<S|| Hso(L-) ||S'> =    -0.6672480866    57.3161632291
<S|| Hso(L0) ||S'> =     0.0000000000     0.0000000000
<S|| Hso(L+) ||S'> =    -0.6672480866   -57.3161632291
 1-elec SOC matrix (cm-1): < B(S,Sz) | Hso(1e) | A(S',Sz') >
                     |Sz'=-1.00>              |Sz'= 0.00>              |Sz'= 1.00>
 <Sz=-1.00|    0.000000   -0.000000i    -0.471816  -40.528648i    -0.000000   -0.000000i
 <Sz= 0.00|    0.471816  -40.528648i     0.000000    0.000000i    -0.471816  -40.528648i
 <Sz= 1.00|   -0.000000    0.000000i     0.471816  -40.528648i     0.000000    0.000000i
1-elec SOCC =    81.062787854 cm-1
 Reading 2e-SOMF integrals
 2e-SOMF Reduced matrix elements (cm-1)
<S|| Hso(L-) ||S'> =     0.2726087374   -23.4169077518
<S|| Hso(L0) ||S'> =     0.0000000000    -0.0000000000
<S|| Hso(L+) ||S'> =     0.2726087374    23.4169077518
 2-elec mean-field SOC matrix (cm-1): < B(S,Sz) | Hso(2e-mf) | A(S',Sz') >
                     |Sz'=-1.00>              |Sz'= 0.00>              |Sz'= 1.00>
 <Sz=-1.00|   -0.000000    0.000000i     0.192763   16.558254i     0.000000    0.000000i
 <Sz= 0.00|   -0.192763   16.558254i    -0.000000   -0.000000i     0.192763   16.558254i
 <Sz= 1.00|    0.000000   -0.000000i    -0.192763   16.558254i    -0.000000   -0.000000i
 Total mean-field SOC matrix (cm-1): < B(S,Sz) | Hsomf | A(S',Sz') >
                     |Sz'=-1.00>              |Sz'= 0.00>              |Sz'= 1.00>
 <Sz=-1.00|    0.000000   -0.000000i    -0.279052  -23.970393i    -0.000000   -0.000000i
 <Sz= 0.00|    0.279052  -23.970393i     0.000000    0.000000i    -0.279052  -23.970393i
 <Sz= 1.00|   -0.000000    0.000000i     0.279052  -23.970393i     0.000000    0.000000i
Mean-Field SOCC =    47.944035336 cm-1
   
**************************************************
State A: Root  2
State B: Root  3
  
Angular momentum components
< B | Lx | A > =    -0.000000000i
< B | Ly | A > =    -0.000000000i
< B | Lz | A > =     1.000000000i
  
Norm of one-particle transition density matrix
||gamma^AB||_total       =  0.975544
||gamma^AB||_symmetrized =  0.690161
||gamma^AB||_anti-symm   =  0.689466
  
Spin-orbit couplings
 Using HF (reference) density for the 2-elec mean-field SOC contribution
KET: S',Sz' (Root   2) =  1.000 1.000
BRA: S ,Sz  (Root   3) =  1.000 1.000
Clebsh-Gordan coefficient: < 1.000, 1.000; 1.000, 0.000| 1.000, 1.000> =  0.707
 Reading 1e-SO integrals
 1e Reduced matrix elements (cm-1)
<S|| Hso(L-) ||S'> =    -0.0000000000     0.0000000000
<S|| Hso(L0) ||S'> =     0.0000000000   -80.2497344546
<S|| Hso(L+) ||S'> =    -0.0000000000    -0.0000000000
 1-elec SOC matrix (cm-1): < B(S,Sz) | Hso(1e) | A(S',Sz') >
                     |Sz'=-1.00>              |Sz'= 0.00>              |Sz'= 1.00>
 <Sz=-1.00|    0.000000   56.745131i    -0.000000   -0.000000i    -0.000000   -0.000000i
 <Sz= 0.00|    0.000000   -0.000000i     0.000000   -0.000000i    -0.000000   -0.000000i
 <Sz= 1.00|   -0.000000   -0.000000i     0.000000   -0.000000i     0.000000  -56.745131i
1-elec SOCC =    80.249734455 cm-1
 Reading 2e-SOMF integrals
 2e-SOMF Reduced matrix elements (cm-1)
<S|| Hso(L-) ||S'> =     0.0000000000    -0.0000000000
<S|| Hso(L0) ||S'> =     0.0000000000    34.4530202473
<S|| Hso(L+) ||S'> =     0.0000000000     0.0000000000
 2-elec mean-field SOC matrix (cm-1): < B(S,Sz) | Hso(2e-mf) | A(S',Sz') >
                     |Sz'=-1.00>              |Sz'= 0.00>              |Sz'= 1.00>
 <Sz=-1.00|   -0.000000  -24.361964i     0.000000    0.000000i     0.000000    0.000000i
 <Sz= 0.00|   -0.000000    0.000000i    -0.000000    0.000000i     0.000000    0.000000i
 <Sz= 1.00|    0.000000    0.000000i    -0.000000    0.000000i    -0.000000   24.361964i
 Total mean-field SOC matrix (cm-1): < B(S,Sz) | Hsomf | A(S',Sz') >
                     |Sz'=-1.00>              |Sz'= 0.00>              |Sz'= 1.00>
 <Sz=-1.00|    0.000000   32.383167i    -0.000000   -0.000000i    -0.000000   -0.000000i
 <Sz= 0.00|    0.000000   -0.000000i     0.000000   -0.000000i    -0.000000   -0.000000i
 <Sz= 1.00|   -0.000000   -0.000000i     0.000000   -0.000000i     0.000000  -32.383167i
Mean-Field SOCC =    45.796714207 cm-1
   
**************************************************
State A: Root  2
State B: Root  4
  
Angular momentum components
< B | Lx | A > =    -0.295863492i
< B | Ly | A > =    -0.059888323i
< B | Lz | A > =     0.000000000i
  
Norm of one-particle transition density matrix
||gamma^AB||_total       =  0.669716
||gamma^AB||_symmetrized =  0.475020
||gamma^AB||_anti-symm   =  0.472097
  
Spin-orbit couplings
 Using HF (reference) density for the 2-elec mean-field SOC contribution
KET: S',Sz' (Root   2) =  1.000 1.000
BRA: S ,Sz  (Root   4) =  1.000 1.000
Clebsh-Gordan coefficient: < 1.000, 1.000; 1.000, 0.000| 1.000, 1.000> =  0.707
 Reading 1e-SO integrals
 1e Reduced matrix elements (cm-1)
<S|| Hso(L-) ||S'> =   -12.2999801644   -60.7650187663
<S|| Hso(L0) ||S'> =     0.0000000000    -0.0000000000
<S|| Hso(L+) ||S'> =   -12.2999801644    60.7650187663
 1-elec SOC matrix (cm-1): < B(S,Sz) | Hso(1e) | A(S',Sz') >
                     |Sz'=-1.00>              |Sz'= 0.00>              |Sz'= 1.00>
 <Sz=-1.00|    0.000000    0.000000i    -8.697399   42.967357i    -0.000000    0.000000i
 <Sz= 0.00|    8.697399   42.967357i     0.000000   -0.000000i    -8.697399   42.967357i
 <Sz= 1.00|   -0.000000   -0.000000i     8.697399   42.967357i     0.000000   -0.000000i
1-elec SOCC =    87.677557194 cm-1
 Reading 2e-SOMF integrals
 2e-SOMF Reduced matrix elements (cm-1)
<S|| Hso(L-) ||S'> =     4.3756480905    21.6168103346
<S|| Hso(L0) ||S'> =     0.0000000000     0.0000000000
<S|| Hso(L+) ||S'> =     4.3756480905   -21.6168103346
 2-elec mean-field SOC matrix (cm-1): < B(S,Sz) | Hso(2e-mf) | A(S',Sz') >
                     |Sz'=-1.00>              |Sz'= 0.00>              |Sz'= 1.00>
 <Sz=-1.00|   -0.000000   -0.000000i     3.094050  -15.285393i     0.000000   -0.000000i
 <Sz= 0.00|   -3.094050  -15.285393i    -0.000000    0.000000i     3.094050  -15.285393i
 <Sz= 1.00|    0.000000    0.000000i    -3.094050  -15.285393i    -0.000000    0.000000i
 Total mean-field SOC matrix (cm-1): < B(S,Sz) | Hsomf | A(S',Sz') >
                     |Sz'=-1.00>              |Sz'= 0.00>              |Sz'= 1.00>
 <Sz=-1.00|    0.000000    0.000000i    -5.603349   27.681964i    -0.000000    0.000000i
 <Sz= 0.00|    5.603349   27.681964i     0.000000   -0.000000i    -5.603349   27.681964i
 <Sz= 1.00|   -0.000000   -0.000000i     5.603349   27.681964i     0.000000   -0.000000i
Mean-Field SOCC =    56.486764153 cm-1
   
**************************************************
State A: Root  2
State B: Root  5
  
Angular momentum components
< B | Lx | A > =     0.059888323i
< B | Ly | A > =    -0.295863492i
< B | Lz | A > =     0.000000000i
  
Norm of one-particle transition density matrix
||gamma^AB||_total       =  0.669716
||gamma^AB||_symmetrized =  0.475020
||gamma^AB||_anti-symm   =  0.472097
  
Spin-orbit couplings
 Using HF (reference) density for the 2-elec mean-field SOC contribution
KET: S',Sz' (Root   2) =  1.000 1.000
BRA: S ,Sz  (Root   5) =  1.000 1.000
Clebsh-Gordan coefficient: < 1.000, 1.000; 1.000, 0.000| 1.000, 1.000> =  0.707
 Reading 1e-SO integrals
 1e Reduced matrix elements (cm-1)
<S|| Hso(L-) ||S'> =   -60.7650187663    12.2999801644
<S|| Hso(L0) ||S'> =     0.0000000000    -0.0000000000
<S|| Hso(L+) ||S'> =   -60.7650187663   -12.2999801644
 1-elec SOC matrix (cm-1): < B(S,Sz) | Hso(1e) | A(S',Sz') >
                     |Sz'=-1.00>              |Sz'= 0.00>              |Sz'= 1.00>
 <Sz=-1.00|    0.000000    0.000000i   -42.967357   -8.697399i    -0.000000   -0.000000i
 <Sz= 0.00|   42.967357   -8.697399i     0.000000    0.000000i   -42.967357   -8.697399i
 <Sz= 1.00|   -0.000000    0.000000i    42.967357   -8.697399i     0.000000   -0.000000i
1-elec SOCC =    87.677557194 cm-1
 Reading 2e-SOMF integrals
 2e-SOMF Reduced matrix elements (cm-1)
<S|| Hso(L-) ||S'> =    21.6168103346    -4.3756480905
<S|| Hso(L0) ||S'> =     0.0000000000     0.0000000000
<S|| Hso(L+) ||S'> =    21.6168103346     4.3756480905
 2-elec mean-field SOC matrix (cm-1): < B(S,Sz) | Hso(2e-mf) | A(S',Sz') >
                     |Sz'=-1.00>              |Sz'= 0.00>              |Sz'= 1.00>
 <Sz=-1.00|   -0.000000   -0.000000i    15.285393    3.094050i     0.000000    0.000000i
 <Sz= 0.00|  -15.285393    3.094050i    -0.000000   -0.000000i    15.285393    3.094050i
 <Sz= 1.00|    0.000000   -0.000000i   -15.285393    3.094050i    -0.000000    0.000000i
 Total mean-field SOC matrix (cm-1): < B(S,Sz) | Hsomf | A(S',Sz') >
                     |Sz'=-1.00>              |Sz'= 0.00>              |Sz'= 1.00>
 <Sz=-1.00|    0.000000    0.000000i   -27.681964   -5.603349i    -0.000000   -0.000000i
 <Sz= 0.00|   27.681964   -5.603349i     0.000000    0.000000i   -27.681964   -5.603349i
 <Sz= 1.00|   -0.000000    0.000000i    27.681964   -5.603349i     0.000000   -0.000000i
Mean-Field SOCC =    56.486764153 cm-1
   
**************************************************
State A: Root  2
State B: Root  6
  
Angular momentum components
< B | Lx | A > =     0.003773236i
< B | Ly | A > =     0.324118428i
< B | Lz | A > =    -0.000000000i
  
Norm of one-particle transition density matrix
||gamma^AB||_total       =  0.669574
||gamma^AB||_symmetrized =  0.474941
||gamma^AB||_anti-symm   =  0.471974
  
Spin-orbit couplings
 Using HF (reference) density for the 2-elec mean-field SOC contribution
KET: S',Sz' (Root   2) =  1.000 1.000
BRA: S ,Sz  (Root   6) =  1.000 1.000
Clebsh-Gordan coefficient: < 1.000, 1.000; 1.000, 0.000| 1.000, 1.000> =  0.707
 Reading 1e-SO integrals
 1e Reduced matrix elements (cm-1)
<S|| Hso(L-) ||S'> =    61.9491567731     0.7211832406
<S|| Hso(L0) ||S'> =     0.0000000000    -0.0000000000
<S|| Hso(L+) ||S'> =    61.9491567731    -0.7211832406
 1-elec SOC matrix (cm-1): < B(S,Sz) | Hso(1e) | A(S',Sz') >
                     |Sz'=-1.00>              |Sz'= 0.00>              |Sz'= 1.00>
 <Sz=-1.00|   -0.000000    0.000000i    43.804669   -0.509954i     0.000000   -0.000000i
 <Sz= 0.00|  -43.804669   -0.509954i    -0.000000    0.000000i    43.804669   -0.509954i
 <Sz= 1.00|    0.000000    0.000000i   -43.804669   -0.509954i    -0.000000   -0.000000i
1-elec SOCC =    87.615274127 cm-1
 Reading 2e-SOMF integrals
 2e-SOMF Reduced matrix elements (cm-1)
<S|| Hso(L-) ||S'> =   -22.0445453016    -0.2566323328
<S|| Hso(L0) ||S'> =     0.0000000000    -0.0000000000
<S|| Hso(L+) ||S'> =   -22.0445453016     0.2566323328
 2-elec mean-field SOC matrix (cm-1): < B(S,Sz) | Hso(2e-mf) | A(S',Sz') >
                     |Sz'=-1.00>              |Sz'= 0.00>              |Sz'= 1.00>
 <Sz=-1.00|    0.000000    0.000000i   -15.587847    0.181466i    -0.000000    0.000000i
 <Sz= 0.00|   15.587847    0.181466i     0.000000   -0.000000i   -15.587847    0.181466i
 <Sz= 1.00|   -0.000000   -0.000000i    15.587847    0.181466i     0.000000   -0.000000i
 Total mean-field SOC matrix (cm-1): < B(S,Sz) | Hsomf | A(S',Sz') >
                     |Sz'=-1.00>              |Sz'= 0.00>              |Sz'= 1.00>
 <Sz=-1.00|   -0.000000    0.000000i    28.216821   -0.328487i     0.000000   -0.000000i
 <Sz= 0.00|  -28.216821   -0.328487i    -0.000000    0.000000i    28.216821   -0.328487i
 <Sz= 1.00|    0.000000    0.000000i   -28.216821   -0.328487i    -0.000000   -0.000000i
Mean-Field SOCC =    56.437466709 cm-1
   
**************************************************
State A: Root  2
State B: Root  7
  
Angular momentum components
< B | Lx | A > =     0.000000000i
< B | Ly | A > =    -0.000000000i
< B | Lz | A > =     0.000000000i
  
Norm of one-particle transition density matrix
||gamma^AB||_total       =  0.270382
||gamma^AB||_symmetrized =  0.258920
||gamma^AB||_anti-symm   =  0.077891
  
Spin-orbit couplings
 Using HF (reference) density for the 2-elec mean-field SOC contribution
KET: S',Sz' (Root   2) =  1.000 1.000
BRA: S ,Sz  (Root   7) =  1.000 1.000
Clebsh-Gordan coefficient: < 1.000, 1.000; 1.000, 0.000| 1.000, 1.000> =  0.707
 Reading 1e-SO integrals
 1e Reduced matrix elements (cm-1)
<S|| Hso(L-) ||S'> =     0.0000000000    -0.0000000000
<S|| Hso(L0) ||S'> =     0.0000000000    -0.0014565833
<S|| Hso(L+) ||S'> =     0.0000000000     0.0000000000
 1-elec SOC matrix (cm-1): < B(S,Sz) | Hso(1e) | A(S',Sz') >
                     |Sz'=-1.00>              |Sz'= 0.00>              |Sz'= 1.00>
 <Sz=-1.00|   -0.000000    0.001030i     0.000000    0.000000i     0.000000   -0.000000i
 <Sz= 0.00|   -0.000000    0.000000i    -0.000000   -0.000000i     0.000000    0.000000i
 <Sz= 1.00|    0.000000   -0.000000i    -0.000000    0.000000i    -0.000000   -0.001030i
1-elec SOCC =     0.001456583 cm-1
 Reading 2e-SOMF integrals
 2e-SOMF Reduced matrix elements (cm-1)
<S|| Hso(L-) ||S'> =    -0.0000000000     0.0000000000
<S|| Hso(L0) ||S'> =     0.0000000000     0.0005865325
<S|| Hso(L+) ||S'> =    -0.0000000000    -0.0000000000
 2-elec mean-field SOC matrix (cm-1): < B(S,Sz) | Hso(2e-mf) | A(S',Sz') >
                     |Sz'=-1.00>              |Sz'= 0.00>              |Sz'= 1.00>
 <Sz=-1.00|    0.000000   -0.000415i    -0.000000   -0.000000i    -0.000000    0.000000i
 <Sz= 0.00|    0.000000   -0.000000i     0.000000    0.000000i    -0.000000   -0.000000i
 <Sz= 1.00|   -0.000000    0.000000i     0.000000   -0.000000i     0.000000    0.000415i
 Total mean-field SOC matrix (cm-1): < B(S,Sz) | Hsomf | A(S',Sz') >
                     |Sz'=-1.00>              |Sz'= 0.00>              |Sz'= 1.00>
 <Sz=-1.00|   -0.000000    0.000615i     0.000000    0.000000i     0.000000   -0.000000i
 <Sz= 0.00|   -0.000000    0.000000i    -0.000000   -0.000000i     0.000000    0.000000i
 <Sz= 1.00|    0.000000   -0.000000i    -0.000000    0.000000i    -0.000000   -0.000615i
Mean-Field SOCC =     0.000870051 cm-1
   
**************************************************
State A: Root  2
State B: Root  8
  
Angular momentum components
< B | Lx | A > =    -0.000000000i
< B | Ly | A > =    -0.000000000i
< B | Lz | A > =     0.000000000i
  
Norm of one-particle transition density matrix
||gamma^AB||_total       =  0.164944
||gamma^AB||_symmetrized =  0.115897
||gamma^AB||_anti-symm   =  0.117364
  
Spin-orbit couplings
 Using HF (reference) density for the 2-elec mean-field SOC contribution
KET: S',Sz' (Root   2) =  1.000 1.000
BRA: S ,Sz  (Root   8) =  1.000 1.000
Clebsh-Gordan coefficient: < 1.000, 1.000; 1.000, 0.000| 1.000, 1.000> =  0.707
 Reading 1e-SO integrals
 1e Reduced matrix elements (cm-1)
<S|| Hso(L-) ||S'> =    -0.0000000000    -0.0000000000
<S|| Hso(L0) ||S'> =     0.0000000000    24.2534579547
<S|| Hso(L+) ||S'> =    -0.0000000000     0.0000000000
 1-elec SOC matrix (cm-1): < B(S,Sz) | Hso(1e) | A(S',Sz') >
                     |Sz'=-1.00>              |Sz'= 0.00>              |Sz'= 1.00>
 <Sz=-1.00|    0.000000  -17.149785i    -0.000000    0.000000i    -0.000000    0.000000i
 <Sz= 0.00|    0.000000    0.000000i     0.000000    0.000000i    -0.000000    0.000000i
 <Sz= 1.00|   -0.000000    0.000000i     0.000000    0.000000i     0.000000   17.149785i
1-elec SOCC =    24.253457955 cm-1
 Reading 2e-SOMF integrals
 2e-SOMF Reduced matrix elements (cm-1)
<S|| Hso(L-) ||S'> =     0.0000000000     0.0000000000
<S|| Hso(L0) ||S'> =     0.0000000000    -9.7663086092
<S|| Hso(L+) ||S'> =     0.0000000000    -0.0000000000
 2-elec mean-field SOC matrix (cm-1): < B(S,Sz) | Hso(2e-mf) | A(S',Sz') >
[...]
 <Sz= 1.00|   -0.000000    0.000000i     0.000000   -0.000000i     0.000000    0.000163i
1-elec SOCC =     0.000230537 cm-1
 Reading 2e-SOMF integrals
 2e-SOMF Reduced matrix elements (cm-1)
<S|| Hso(L-) ||S'> =    -0.0000000000    -0.0000000000
<S|| Hso(L0) ||S'> =     0.0000000000    -0.0001158730
<S|| Hso(L+) ||S'> =    -0.0000000000     0.0000000000
 2-elec mean-field SOC matrix (cm-1): < B(S,Sz) | Hso(2e-mf) | A(S',Sz') >
                     |Sz'=-1.00>              |Sz'= 0.00>              |Sz'= 1.00>
 <Sz=-1.00|    0.000000    0.000082i    -0.000000    0.000000i    -0.000000   -0.000000i
 <Sz= 0.00|    0.000000    0.000000i     0.000000   -0.000000i    -0.000000    0.000000i
 <Sz= 1.00|   -0.000000   -0.000000i     0.000000    0.000000i     0.000000   -0.000082i
 Total mean-field SOC matrix (cm-1): < B(S,Sz) | Hsomf | A(S',Sz') >
                     |Sz'=-1.00>              |Sz'= 0.00>              |Sz'= 1.00>
 <Sz=-1.00|    0.000000   -0.000081i    -0.000000   -0.000000i    -0.000000    0.000000i
 <Sz= 0.00|    0.000000   -0.000000i     0.000000    0.000000i    -0.000000   -0.000000i
 <Sz= 1.00|   -0.000000    0.000000i     0.000000   -0.000000i     0.000000    0.000081i
Mean-Field SOCC =     0.000114664 cm-1
   
**************************************************
State A: Root 10
State B: Root  8
  
Angular momentum components
< B | Lx | A > =    -0.000000000i
< B | Ly | A > =     0.000000000i
< B | Lz | A > =    -0.000000123i
  
Norm of one-particle transition density matrix
||gamma^AB||_total       =  0.781165
||gamma^AB||_symmetrized =  0.536823
||gamma^AB||_anti-symm   =  0.567485
  
Spin-orbit couplings
 Using HF (reference) density for the 2-elec mean-field SOC contribution
KET: S',Sz' (Root  10) =  1.000 1.000
BRA: S ,Sz  (Root   8) =  1.000 1.000
Clebsh-Gordan coefficient: < 1.000, 1.000; 1.000, 0.000| 1.000, 1.000> =  0.707
 Reading 1e-SO integrals
 1e Reduced matrix elements (cm-1)
<S|| Hso(L-) ||S'> =    -0.0000000000    -0.0000000000
<S|| Hso(L0) ||S'> =     0.0000000000    -7.7520847741
<S|| Hso(L+) ||S'> =    -0.0000000000     0.0000000000
 1-elec SOC matrix (cm-1): < B(S,Sz) | Hso(1e) | A(S',Sz') >
                     |Sz'=-1.00>              |Sz'= 0.00>              |Sz'= 1.00>
 <Sz=-1.00|    0.000000    5.481552i    -0.000000    0.000000i    -0.000000   -0.000000i
 <Sz= 0.00|    0.000000    0.000000i     0.000000   -0.000000i    -0.000000    0.000000i
 <Sz= 1.00|   -0.000000   -0.000000i     0.000000    0.000000i     0.000000   -5.481552i
1-elec SOCC =     7.752084774 cm-1
 Reading 2e-SOMF integrals
 2e-SOMF Reduced matrix elements (cm-1)
<S|| Hso(L-) ||S'> =     0.0000000000     0.0000000000
<S|| Hso(L0) ||S'> =     0.0000000000     3.8963692999
<S|| Hso(L+) ||S'> =     0.0000000000    -0.0000000000
 2-elec mean-field SOC matrix (cm-1): < B(S,Sz) | Hso(2e-mf) | A(S',Sz') >
                     |Sz'=-1.00>              |Sz'= 0.00>              |Sz'= 1.00>
 <Sz=-1.00|   -0.000000   -2.755149i     0.000000   -0.000000i     0.000000    0.000000i
 <Sz= 0.00|   -0.000000   -0.000000i    -0.000000    0.000000i     0.000000   -0.000000i
 <Sz= 1.00|    0.000000    0.000000i    -0.000000   -0.000000i    -0.000000    2.755149i
 Total mean-field SOC matrix (cm-1): < B(S,Sz) | Hsomf | A(S',Sz') >
                     |Sz'=-1.00>              |Sz'= 0.00>              |Sz'= 1.00>
 <Sz=-1.00|    0.000000    2.726403i    -0.000000    0.000000i    -0.000000   -0.000000i
 <Sz= 0.00|    0.000000    0.000000i     0.000000   -0.000000i    -0.000000    0.000000i
 <Sz= 1.00|   -0.000000   -0.000000i     0.000000    0.000000i     0.000000   -2.726403i
Mean-Field SOCC =     3.855715474 cm-1
   
**************************************************
State A: Root 10
State B: Root  9
  
Angular momentum components
< B | Lx | A > =    -0.234124460i
< B | Ly | A > =     0.002732667i
< B | Lz | A > =    -0.000000000i
  
Norm of one-particle transition density matrix
||gamma^AB||_total       =  0.409442
||gamma^AB||_symmetrized =  0.286785
||gamma^AB||_anti-symm   =  0.292228
  
Spin-orbit couplings
 Using HF (reference) density for the 2-elec mean-field SOC contribution
KET: S',Sz' (Root  10) =  1.000 1.000
BRA: S ,Sz  (Root   9) =  1.000 1.000
Clebsh-Gordan coefficient: < 1.000, 1.000; 1.000, 0.000| 1.000, 1.000> =  0.707
 Reading 1e-SO integrals
 1e Reduced matrix elements (cm-1)
<S|| Hso(L-) ||S'> =     0.2151404248   -18.4324083518
<S|| Hso(L0) ||S'> =     0.0000000000    -0.0000000000
<S|| Hso(L+) ||S'> =     0.2151404248    18.4324083518
 1-elec SOC matrix (cm-1): < B(S,Sz) | Hso(1e) | A(S',Sz') >
                     |Sz'=-1.00>              |Sz'= 0.00>              |Sz'= 1.00>
 <Sz=-1.00|   -0.000000    0.000000i     0.152127   13.033681i     0.000000    0.000000i
 <Sz= 0.00|   -0.152127   13.033681i    -0.000000   -0.000000i     0.152127   13.033681i
 <Sz= 1.00|    0.000000   -0.000000i    -0.152127   13.033681i    -0.000000   -0.000000i
1-elec SOCC =    26.069137425 cm-1
 Reading 2e-SOMF integrals
 2e-SOMF Reduced matrix elements (cm-1)
<S|| Hso(L-) ||S'> =    -0.0690559974     5.9164536091
<S|| Hso(L0) ||S'> =     0.0000000000     0.0000000000
<S|| Hso(L+) ||S'> =    -0.0690559974    -5.9164536091
 2-elec mean-field SOC matrix (cm-1): < B(S,Sz) | Hso(2e-mf) | A(S',Sz') >
                     |Sz'=-1.00>              |Sz'= 0.00>              |Sz'= 1.00>
 <Sz=-1.00|    0.000000   -0.000000i    -0.048830   -4.183564i    -0.000000   -0.000000i
 <Sz= 0.00|    0.048830   -4.183564i     0.000000    0.000000i    -0.048830   -4.183564i
 <Sz= 1.00|   -0.000000    0.000000i     0.048830   -4.183564i     0.000000    0.000000i
 Total mean-field SOC matrix (cm-1): < B(S,Sz) | Hsomf | A(S',Sz') >
                     |Sz'=-1.00>              |Sz'= 0.00>              |Sz'= 1.00>
 <Sz=-1.00|   -0.000000   -0.000000i     0.103297    8.850116i     0.000000    0.000000i
 <Sz= 0.00|   -0.103297    8.850116i    -0.000000   -0.000000i     0.103297    8.850116i
 <Sz= 1.00|    0.000000   -0.000000i    -0.103297    8.850116i    -0.000000    0.000000i
Mean-Field SOCC =    17.701438573 cm-1
   
**************************************************
RAS-CI timing summary (seconds)
  CPU time          5.13s
  System time       0.00s
  Wall time        13.94s
Detailed CPU timing summary
     Fock matrix         :         0.0056 s
     Integrals           :         0.0099 s
     Addressing matrices :         0.0002 s
     Guesses             :         0.0003 s
     Iterations          :         4.8617 s
     Properties          :         0.2547 s
     RAS-CI(2) correction:         0.0000 s
  
 
 --------------------------------------------------------------
             Orbital Energies (a.u.) and Symmetries
 --------------------------------------------------------------
 
 Alpha MOs, Restricted
 -- Doubly Occupied --           
-26.039 -15.440  -1.611  -1.024  -0.619  -0.619  -0.576
  1 A1    2 A1    3 A1    4 A1    1 B1    1 B2    5 A1                         
 -- Singly Occupied (Occupied) --
 -0.448  -0.448
  2 B1    2 B2                                                                 
 -- Virtual --                   
  0.536
  6 A1                                                                         
 
 Beta MOs, Restricted
 -- Doubly Occupied --           
-26.039 -15.440  -1.611  -1.024  -0.619  -0.619  -0.576
  1 A1    2 A1    3 A1    4 A1    1 B1    1 B2    5 A1                         
 -- Singly Occupied (Vacant) --  
 -0.448  -0.448
  2 B1    2 B2                                                                 
 -- Virtual --                   
  0.536
  6 A1                                                                         
 --------------------------------------------------------------
 

                        RESTRICTED (RHF) MOLECULAR ORBITAL COEFFICIENTS
                         1         2         3         4         5         6
 eigenvalues:        -26.039   -15.440    -1.611    -1.024    -0.619    -0.619
   1  N     s        0.00045   0.99482  -0.07211  -0.21795  -0.00000  -0.00000
   2  N     s       -0.00346   0.02167   0.22089   0.84651   0.00000  -0.00000
   3  N     px       0.00000  -0.00000   0.00000  -0.00000   0.21527  -0.00000
   4  N     py       0.00000  -0.00000   0.00000   0.00000  -0.00000  -0.21527
   5  N     pz      -0.00378   0.00346   0.12185   0.06026  -0.00000   0.00000
   6  F     s        0.99482   0.00050  -0.23917   0.10558   0.00000  -0.00000
   7  F     s        0.02174  -0.00408   0.89699  -0.49032  -0.00000  -0.00000
   8  F     px       0.00000  -0.00000   0.00000   0.00000   0.95207  -0.00000
   9  F     py       0.00000  -0.00000   0.00000   0.00000  -0.00000  -0.95207
  10  F     pz      -0.00266   0.00260  -0.10032  -0.37328   0.00000  -0.00000
                         7         8         9        10
 eigenvalues:         -0.576    -0.448    -0.448     0.536
   1  N     s       -0.11551   0.00000  -0.00000  -0.08284
   2  N     s        0.51496  -0.00000  -0.00000   0.43239
   3  N     px      -0.00000   0.98342  -0.00000  -0.00000
   4  N     py      -0.00000  -0.00000  -0.98342  -0.00000
   5  N     pz      -0.56910   0.00000  -0.00000   0.94519
   6  F     s       -0.02596   0.00000  -0.00000   0.07799
   7  F     s        0.13877  -0.00000   0.00000  -0.46587
   8  F     px      -0.00000  -0.32714   0.00000  -0.00000
   9  F     py      -0.00000   0.00000   0.32714  -0.00000
  10  F     pz       0.61398  -0.00000   0.00000   0.80621
 

======= MOLECULAR ORBITALS IN MOLDEN FORMAT =======
[Molden Format]
[Atoms] (Angs)
  N      1    7      0.00000000      0.00000000     -0.74075625
  F      2    9      0.00000000      0.00000000      0.57614375
[GTO]
1    0
S    3    1.000000
   9.91061690E+01    1.54328970E-01 
   1.80523120E+01    5.35328140E-01 
   4.88566020E+00    4.44634540E-01 
SP   3    1.000000
   3.78045590E+00   -9.99672300E-02   1.55916270E-01 
   8.78496600E-01    3.99512830E-01   6.07683720E-01 
   2.85714400E-01    7.00115470E-01   3.91957390E-01 

2    0
S    3    1.000000
   1.66679130E+02    1.54328970E-01 
   3.03608120E+01    5.35328140E-01 
   8.21682070E+00    4.44634540E-01 
SP   3    1.000000
   6.46480320E+00   -9.99672300E-02   1.55916270E-01 
   1.50228120E+00    3.99512830E-01   6.07683720E-01 
   4.88588500E-01    7.00115470E-01   3.91957390E-01 

[MO]
Sym=X
Ene= -26.039230
Spin=Alpha
Occup=1
     1    4.509532044778e-04
     2   -3.463868950833e-03
     3    1.142486939685e-17
     4    1.615175148350e-18
     5   -3.777204482879e-03
     6    9.948184547558e-01
     7    2.173737744026e-02
     8    6.008870784115e-17
     9    1.808399053410e-17
    10   -2.658862285441e-03
Sym=X
Ene= -15.440066
Spin=Alpha
Occup=1
     1    9.948206829511e-01
     2    2.166624407490e-02
     3   -5.055703675676e-17
     4   -3.339518371776e-17
     5    3.462999361820e-03
     6    4.967690505116e-04
     7   -4.077472593801e-03
     8   -2.321579119647e-16
     9   -1.026569460070e-16
    10    2.604261923873e-03
Sym=X
Ene= -1.611465
Spin=Alpha
Occup=1
     1   -7.210636844259e-02
     2    2.208935451052e-01
     3    3.917449874213e-16
     4    9.478736200143e-17
     5    1.218515282771e-01
     6   -2.391674963772e-01
     7    8.969900791719e-01
     8    1.447202402768e-15
     9    2.995115283700e-16
    10   -1.003179203065e-01
Sym=X
Ene= -1.023592
Spin=Alpha
Occup=1
     1   -2.179521319469e-01
     2    8.465092108097e-01
     3   -3.705546194260e-18
     4    3.046234237552e-17
     5    6.025773740396e-02
     6    1.055756209963e-01
     7   -4.903237879530e-01
     8    3.641166313682e-17
     9    4.605131211556e-16
    10   -3.732819889460e-01
Sym=X
Ene= -0.618844
Spin=Alpha
Occup=1
     1   -2.549213264282e-15
     2    3.580683358849e-15
     3    2.152689240056e-01
     4   -2.277375133635e-17
     5   -4.766964375451e-15
     6    3.293511210285e-16
     7   -1.172991219914e-15
     8    9.520678087603e-01
     9   -1.327422601092e-15
    10    4.942632153708e-15
Sym=X
Ene= -0.618844
Spin=Alpha
Occup=1
     1   -3.970066006215e-16
     2   -5.922957457979e-16
     3   -1.658901321703e-16
     4   -2.152689240338e-01
     5    1.401196505706e-15
     6   -6.150393229642e-18
     7   -1.841502203409e-16
     8   -1.064606912284e-15
     9   -9.520678087509e-01
    10   -1.658042397277e-15
Sym=X
Ene= -0.576341
Spin=Alpha
Occup=1
     1   -1.155133542003e-01
     2    5.149612414298e-01
     3   -1.711320183112e-15
     4   -4.244778938774e-16
     5   -5.691010989087e-01
     6   -2.596077022853e-02
     7    1.387668568835e-01
     8   -8.129614732276e-15
     9   -2.392404566820e-15
    10    6.139827532477e-01
Sym=X
Ene= -0.448234
Spin=Alpha
Occup=1
     1    2.963556143916e-16
     2   -8.444508725600e-17
     3    9.834185414822e-01
     4   -2.229420363326e-15
     5    1.163238547182e-16
     6    1.970073891407e-16
     7   -1.598657823784e-16
     8   -3.271385408292e-01
     9    1.055209293492e-15
    10   -4.299770737960e-17
Sym=X
Ene= -0.448234
Spin=Alpha
Occup=1
     1   -2.529085137418e-16
     2   -6.735939693978e-17
     3   -1.832114477219e-15
     4   -9.834185414760e-01
     5   -1.533988976134e-16
     6   -2.492874080451e-16
     7    2.699016210527e-16
     8    1.320309430159e-15
     9    3.271385408565e-01
    10    2.073630028792e-16
Sym=X
Ene= 0.536017
Spin=Alpha
Occup=0
     1   -8.283563252191e-02
     2    4.323880640801e-01
     3   -7.894752195497e-17
     4   -8.830376032444e-17
     5    9.451867675104e-01
     6    7.798506573818e-02
     7   -4.658725223289e-01
     8   -9.629217412928e-17
     9   -9.057338164261e-18
    10    8.062053887094e-01

======= END OF MOLDEN-FORMAT MOLECULAR ORBITALS =======

          Ground-State Mulliken Net Atomic Charges

     Atom                 Charge (a.u.)
  ----------------------------------------
      1 N                     0.074662
      2 F                    -0.074662
  ----------------------------------------
  Sum of atomic charges =     0.000000

 -----------------------------------------------------------------
                    Cartesian Multipole Moments
 -----------------------------------------------------------------
    Charge (ESU x 10^10)
                -0.0000
    Dipole Moment (Debye)
         X       0.0000      Y       0.0000      Z       0.2309
       Tot       0.2309
    Quadrupole Moments (Debye-Ang)
        XX      -8.4773     XY       0.0000     YY      -8.4773
        XZ       0.0000     YZ       0.0000     ZZ      -9.9171
    Octopole Moments (Debye-Ang^2)
       XXX       0.0000    XXY       0.0000    XYY       0.0000
       YYY       0.0000    XXZ       1.2951    XYZ      -0.0000
       YYZ       1.2951    XZZ       0.0000    YZZ       0.0000
       ZZZ       5.2379
    Hexadecapole Moments (Debye-Ang^3)
      XXXX      -4.2279   XXXY       0.0000   XXYY      -1.4093
      XYYY       0.0000   YYYY      -4.2279   XXXZ       0.0000
      XXYZ       0.0000   XYYZ       0.0000   YYYZ       0.0000
      XXZZ      -5.4637   XYZZ       0.0000   YYZZ      -5.4637
      XZZZ       0.0000   YZZZ       0.0000   ZZZZ     -29.0190
 -----------------------------------------------------------------
 Mayer SCF Bond Order, atomic valence on the diagonal:

            1           2
    1   1.2142011   1.2142011
    2   1.2142011   1.2142011


 Total job time:  20.74s(wall), 5.35s(cpu) 
 Tue Oct 24 11:13:41 2023

======= MOLDEN-FORMATTED INPUT FILE FOLLOWS =======
[Molden Format]
[Atoms] (Angs)
  N      1    7      0.00000000      0.00000000     -0.74075625
  F      2    9      0.00000000      0.00000000      0.57614375
[GTO]
1    0
S    3    1.000000
   9.91061690E+01    1.54328970E-01 
   1.80523120E+01    5.35328140E-01 
   4.88566020E+00    4.44634540E-01 
SP   3    1.000000
   3.78045590E+00   -9.99672300E-02   1.55916270E-01 
   8.78496600E-01    3.99512830E-01   6.07683720E-01 
   2.85714400E-01    7.00115470E-01   3.91957390E-01 

2    0
S    3    1.000000
   1.66679130E+02    1.54328970E-01 
   3.03608120E+01    5.35328140E-01 
   8.21682070E+00    4.44634540E-01 
SP   3    1.000000
   6.46480320E+00   -9.99672300E-02   1.55916270E-01 
   1.50228120E+00    3.99512830E-01   6.07683720E-01 
   4.88588500E-01    7.00115470E-01   3.91957390E-01 

[MO]
Sym=X
Ene= -26.039230
Spin=Alpha
Occup=1
     1    4.509532044778e-04
     2   -3.463868950833e-03
     3    1.142486939685e-17
     4    1.615175148350e-18
     5   -3.777204482879e-03
     6    9.948184547558e-01
     7    2.173737744026e-02
     8    6.008870784115e-17
     9    1.808399053410e-17
    10   -2.658862285441e-03
Sym=X
Ene= -15.440066
Spin=Alpha
Occup=1
     1    9.948206829511e-01
     2    2.166624407490e-02
     3   -5.055703675676e-17
     4   -3.339518371776e-17
     5    3.462999361820e-03
     6    4.967690505116e-04
     7   -4.077472593801e-03
     8   -2.321579119647e-16
     9   -1.026569460070e-16
    10    2.604261923873e-03
Sym=X
Ene= -1.611465
Spin=Alpha
Occup=1
     1   -7.210636844259e-02
     2    2.208935451052e-01
     3    3.917449874213e-16
     4    9.478736200143e-17
     5    1.218515282771e-01
     6   -2.391674963772e-01
     7    8.969900791719e-01
     8    1.447202402768e-15
     9    2.995115283700e-16
    10   -1.003179203065e-01
Sym=X
Ene= -1.023592
Spin=Alpha
Occup=1
     1   -2.179521319469e-01
     2    8.465092108097e-01
     3   -3.705546194260e-18
     4    3.046234237552e-17
     5    6.025773740396e-02
     6    1.055756209963e-01
     7   -4.903237879530e-01
     8    3.641166313682e-17
     9    4.605131211556e-16
    10   -3.732819889460e-01
Sym=X
Ene= -0.618844
Spin=Alpha
Occup=1
     1   -2.549213264282e-15
     2    3.580683358849e-15
     3    2.152689240056e-01
     4   -2.277375133635e-17
     5   -4.766964375451e-15
     6    3.293511210285e-16
     7   -1.172991219914e-15
     8    9.520678087603e-01
     9   -1.327422601092e-15
    10    4.942632153708e-15
Sym=X
Ene= -0.618844
Spin=Alpha
Occup=1
     1   -3.970066006215e-16
     2   -5.922957457979e-16
     3   -1.658901321703e-16
     4   -2.152689240338e-01
     5    1.401196505706e-15
     6   -6.150393229642e-18
     7   -1.841502203409e-16
     8   -1.064606912284e-15
     9   -9.520678087509e-01
    10   -1.658042397277e-15
Sym=X
Ene= -0.576341
Spin=Alpha
Occup=1
     1   -1.155133542003e-01
     2    5.149612414298e-01
     3   -1.711320183112e-15
     4   -4.244778938774e-16
     5   -5.691010989087e-01
     6   -2.596077022853e-02
     7    1.387668568835e-01
     8   -8.129614732276e-15
     9   -2.392404566820e-15
    10    6.139827532477e-01
Sym=X
Ene= -0.448234
Spin=Alpha
Occup=1
     1    2.963556143916e-16
     2   -8.444508725600e-17
     3    9.834185414822e-01
     4   -2.229420363326e-15
     5    1.163238547182e-16
     6    1.970073891407e-16
     7   -1.598657823784e-16
     8   -3.271385408292e-01
     9    1.055209293492e-15
    10   -4.299770737960e-17
Sym=X
Ene= -0.448234
Spin=Alpha
Occup=1
     1   -2.529085137418e-16
     2   -6.735939693978e-17
     3   -1.832114477219e-15
     4   -9.834185414760e-01
     5   -1.533988976134e-16
     6   -2.492874080451e-16
     7    2.699016210527e-16
     8    1.320309430159e-15
     9    3.271385408565e-01
    10    2.073630028792e-16
Sym=X
Ene= 0.536017
Spin=Alpha
Occup=0
     1   -8.283563252191e-02
     2    4.323880640801e-01
     3   -7.894752195497e-17
     4   -8.830376032444e-17
     5    9.451867675104e-01
     6    7.798506573818e-02
     7   -4.658725223289e-01
     8   -9.629217412928e-17
     9   -9.057338164261e-18
    10    8.062053887094e-01

======= END OF MOLDEN-FORMATTED INPUT FILE =======


        *************************************************************
        *                                                           *
        *  Thank you very much for using Q-Chem.  Have a nice day.  *
        *                                                           *
        *************************************************************


