                  Welcome to Q-Chem
     A Quantum Leap Into The Future Of Chemistry


 Q-Chem 6.0 (devel), Q-Chem, Inc., Pleasanton, CA (2022)

 E. Epifanovsky,  A. T. B. Gilbert,  Xintian Feng,  Joonho Lee,  Yuezhi Mao,  
 N. Mardirossian,  P. Pokhilko,  A. White,  M. Wormit,  M. P. Coons,  
 A. L. Dempwolff,  Zhengting Gan,  D. Hait,  P. R. Horn,  L. D. Jacobson,  
 I. Kaliman,  J. Kussmann,  A. W. Lange,  Ka Un Lao,  D. S. Levine,  Jie Liu,  
 S. C. McKenzie,  A. F. Morrison,  K. Nanda,  F. Plasser,  D. R. Rehn,  
 M. L. Vidal,  Zhi-Qiang You,  Ying Zhu,  B. Alam,  B. Albrecht,  
 A. Aldossary,  E. Alguire,  J. H. Andersen,  V. Athavale,  D. Barton,  
 K. Begam,  A. Behn,  N. Bellonzi,  Y. A. Bernard,  E. J. Berquist,  
 H. Burton,  A. Carreras,  K. Carter-Fenk,  Romit Chakraborty,  
 Chandrima Chakravarty,  Junhan Chen,  A. D. Chien,  K. D. Closser,  
 V. Cofer-Shabica,  L. Cunha,  S. Dasgupta,  Jia Deng,  M. de Wergifosse,  
 M. Diedenhofen,  Hainam Do,  S. Ehlert,  Po-Tung Fang,  S. Fatehi,  
 Qingguo Feng,  T. Friedhoff,  B. Ganoe,  J. Gayvert,  Qinghui Ge,  
 G. Gidofalvi,  M. Goldey,  J. Gomes,  C. Gonzalez-Espinoza,  S. Gulania,  
 A. Gunina,  J. A. Gyamfi,  M. W. D. Hanson-Heine,  P. H. P. Harbach,  
 A. W. Hauser,  M. F. Herbst,  M. Hernandez Vera,  M. Hodecker,  
 Z. C. Holden,  S. Houck,  Xunkun Huang,  Kerwin Hui,  B. C. Huynh,  
 K. Ikeda,  M. Ivanov,  Hyunjun Ji,  Zuxin Jin,  Hanjie Jiang,  B. Kaduk,  
 S. Kaehler,  R. Kang,  K. Khistyaev,  Jaehoon Kim,  Yongbin Kim,  
 P. Klunzinger,  Z. Koczor-Benda,  Joong Hoon Koh,  D. Kosenkov,  
 Saikiran Kotaru,  L. Koulias,  T. Kowalczyk,  C. M. Krauter,  K. Kue,  
 A. Kunitsa,  T. Kus,  A. Landau,  K. V. Lawler,  D. Lefrancois,  S. Lehtola,  
 Rain Li,  Shaozhi Li,  Yi-Pei Li,  Jiashu Liang,  M. Liebenthal,  
 Hung-Hsuan Lin,  You-Sheng Lin,  Fenglai Liu,  Kuan-Yu Liu,  
 M. Loipersberger,  A. Luenser,  C. Malbon,  A. Manjanath,  P. Manohar,  
 E. Mansoor,  S. F. Manzer,  Shan-Ping Mao,  A. V. Marenich,  T. Markovich,  
 S. Mason,  F. Matz,  S. A. Maurer,  P. F. McLaughlin,  M. F. S. J. Menger,  
 J.-M. Mewes,  S. A. Mewes,  P. Morgante,  Mohammad Mostafanejad,  
 J. W. Mullinax,  K. J. Oosterbaan,  G. Paran,  V. Parravicini,  
 Alexander C. Paul,  Suranjan K. Paul,  F. Pavosevic,  Zheng Pei,  S. Prager,  
 E. I. Proynov,  E. Ramos,  B. Rana,  A. E. Rask,  A. Rettig,  R. M. Richard,  
 F. Rob,  E. Rossomme,  T. Scheele,  M. Scheurer,  M. Schneider,  
 P. E. Schneider,  N. Sergueev,  S. M. Sharada,  Hengyuan Shen,  
 W. Skomorowski,  D. W. Small,  C. J. Stein,  Yingli Su,  Yu-Chuan Su,  
 E. J. Sundstrom,  Zhen Tao,  J. Thirman,  Hung-Yi Tsai,  T. Tsuchimochi,  
 N. M. Tubman,  C. Utku,  S. P. Veccham,  O. Vydrov,  J. Wenzel,  
 Jonathan Wong,  J. Witte,  A. Yamada,  Chou-Hsun Yang,  Kun Yao,  
 S. Yeganeh,  S. R. Yost,  A. Zech,  F. Zeller,  Igor Ying Zhang,  
 Xing Zhang,  Yu Zhang,  D. Zuev,  A. Aspuru-Guzik,  A. T. Bell,  
 N. A. Besley,  K. B. Bravaya,  B. R. Brooks,  D. Casanova,  Jeng-Da Chai,  
 Hsing-Ta Chen,  S. Coriani,  C. J. Cramer,  A. E. DePrince, III,  
 R. A. DiStasio Jr.,  A. Dreuw,  B. D. Dunietz,  T. R. Furlani,  
 W. A. Goddard III,  S. Grimme,  S. Hammes-Schiffer,  T. Head-Gordon,  
 W. J. Hehre,  Chao-Ping Hsu,  T.-C. Jagau,  Yousung Jung,  A. Klamt,  
 Jing Kong,  D. S. Lambrecht,  Xiangyuan Li,  WanZhen Liang,  N. J. Mayhall,  
 C. W. McCurdy,  J. B. Neaton,  T. Neudecker,  C. Ochsenfeld,  
 J. A. Parkhill,  R. Peverati,  V. A. Rassolov,  Haisheng Ren,  Yihan Shao,  
 L. V. Slipchenko,  R. P. Steele,  J. E. Subotnik,  A. J. W. Thom,  
 A. Tkatchenko,  D. G. Truhlar,  T. Van Voorhis,  Fan Wang,  
 T. A. Wesolowski,  K. B. Whaley,  H. L. Woodcock III,  P. M. Zimmerman,  
 S. Faraji,  P. M. W. Gill,  M. Head-Gordon,  J. M. Herbert,  A. I. Krylov

 Contributors to earlier versions of Q-Chem not listed above: 
 R. D. Adamson,  B. Austin,  R. Baer,  J. Baker,  G. J. O. Beran,  
 K. Brandhorst,  S. T. Brown,  E. F. C. Byrd,  Arup K. Chakraborty,  
 G. K. L. Chan,  Chun-Min Chang,  Yunqing Chen,  C.-L. Cheng,  
 Siu Hung Chien,  D. M. Chipman,  D. L. Crittenden,  H. Dachsel,  
 R. J. Doerksen,  A. D. Dutoi,  R. G. Edgar,  J. Fosso-Tande,  
 L. Fusti-Molnar,  D. Ghosh,  A. Ghysels,  A. Golubeva-Zadorozhnaya,  
 J. Gonthier,  M. S. Gordon,  S. R. Gwaltney,  G. Hawkins,  J. E. Herr,  
 A. Heyden,  S. Hirata,  E. G. Hohenstein,  G. Kedziora,  F. J. Keil,  
 C. Kelley,  Jihan Kim,  R. A. King,  R. Z. Khaliullin,  P. P. Korambath,  
 W. Kurlancheek,  A. Laurent,  A. M. Lee,  M. S. Lee,  S. V. Levchenko,  
 Ching Yeh Lin,  D. Liotard,  E. Livshits,  R. C. Lochan,  I. Lotan,  
 L. A. Martinez-Martinez,  P. E. Maslen,  N. Nair,  D. P. O'Neill,  
 D. Neuhauser,  E. Neuscamman,  C. M. Oana,  R. Olivares-Amaya,  R. Olson,  
 T. M. Perrine,  B. Peters,  P. A. Pieniazek,  A. Prociuk,  Y. M. Rhee,  
 J. Ritchie,  M. A. Rohrdanz,  E. Rosta,  N. J. Russ,  H. F. Schaefer III,  
 M. W. Schmidt,  N. E. Schultz,  S. Sharma,  N. Shenvi,  C. D. Sherrill,  
 A. C. Simmonett,  A. Sodt,  T. Stein,  D. Stuck,  K. S. Thanthiriwatte,  
 V. Vanovschi,  L. Vogt,  Tao Wang,  A. Warshel,  M. A. Watson,  
 C. F. Williams,  Q. Wu,  X. Xu,  Jun Yang,  W. Zhang,  Yan Zhao

   Please cite Q-Chem as follows:
  "Software for the frontiers of quantum chemistry:
   An overview of developments in the Q-Chem 5 package"
   J. Chem. Phys. 155, 084801 (2021)
   https://doi.org/10.1063/5.0055522 (open access)

 Q-Chem 6.0.1 for Intel X86 EM64T Linux

 Parts of Q-Chem use Armadillo 9.900.5 (Nocturnal Misbehaviour).
 http://arma.sourceforge.net/

 Q-Chem begins on Tue Oct 24 11:20:39 2023  

 Host: atlas-145
0

     Scratch files written to ./qchem84864//
 Processing $rem in /scratch/abel/SOFTWARE/qchem/config/preferences:
 Processing $rem in /dipc/acebg/.qchemrc:

 Checking the input file for inconsistencies... 	...done.

--------------------------------------------------------------
User input:
--------------------------------------------------------------
$comment
 RAS-SF CALCULATION
$end

$molecule
 READ o2.molecule
$end

$rem
!**CALCULATION TYPE***     
JOBTYPE            sp    
EXCHANGE           HF
CORRELATION        RASCI    !RASCI=Casanova; RASCI2=Zimmerman
BASIS              sto-3g

!***SCF REFERENCE***
!SKIP_SCFMAN        FALSE
UNRESTRICTED       FALSE
!SCF_GUESS          core
!SCF_GUESS_MIX      FALSE
!SCF_GUESS_ALWAYS   FALSE
MAX_SCF_CYCLES     500
!SCF_CONVERGENCE    8
SCF_ALGORITHM      DIIS_GDM !DIIS,DM,DIIS_DM,GDM,DIIS_GDM,GD

!SYMMETRY           TRUE !use of symmetry for calculating integrals
!SYM_IGNORE         FALSE !turn off using symmetry
!SYM_TOL            5 !tolerance for determining point group

!THRESH             14
SCF_FINAL_PRINT     1 !0,1,2,3

!****RAS-SF****
RAS_ROOTS          10       !number of RAS-CI roots to be computed
SET_ITER           150     !number of iterations in RASCI
RAS_ELEC           16       !number of electrons in RAS2
RAS_ELEC_ALPHA     9       !spin-α electrons in RAS2 
RAS_ELEC_BETA      7      !spin-β electrons in RAS2

RAS_ACT            10       !number of orbitals in RAS2 
RAS_ACT_ORB   [1,2,3,4,5,6,7,8,9,10]  !user-selected RAS2 orbitals
RAS_OCC            0       !number of orbitals in RAS1
!N_FROZEN_CORE      0     !Number of frozen core orbitals
!N_FROZEN_VIRTUAL   0      !Number of frozen virtual orbitals

RAS_DO_HOLE        TRUE   !presence of hole excitations in RAS-CI wave function
RAS_DO_PART        TRUE   !presence of particle excitations
!RAS_AMPL_PRINT     10     !threshold (×10 2 ) for the CI amplitudes

!RAS_GUESS_CS       0      !number of closed shell guess conﬁgurations
!RAS_SPIN_MULT      0      !spin multiplicity: 0=any, 2n+1=defined 
!RAS_SRDFT          FALSE  !short-range density functional RAS-CI
!RAS_NFRAG          0     !fragments of excitation analysis in RASCI

RAS_PRINT          2      !level of information
RAS_NATORB         TRUE   !computation of the natural orbital occupancies
!RAS_NATORB_STATE  0      !Saves NO of i RAS computed state in .fchk ﬁle
!RAS_FOD            TRUE

!****RAS-SOC****
CALC_SOC           TRUE   !calculate SOC for EOM-CC, RAS-CI, ADC, TDDFT/TDA and TDDFT
!RAS_SOC_2E        TRUE   !two-electron mean-ﬁeld contribution, default=true
RAS_SOC_SYM_DENS   TRUE   !averaging of α and β densities

!****MEMORY****
MEM_TOTAL          60000 !Default 2000 MB
MEM_STATIC         16000  !Default 64 MB

!**Molecular Properties and Analysis **                                                                                          
!GUI                2
STATE_ANALYSIS     TRUE
MOLDEN_FORMAT      TRUE
PRINT_ORBITALS     20
$end                                           

--------------------------------------------------------------
 ----------------------------------------------------------------
             Standard Nuclear Orientation (Angstroms)
    I     Atom           X                Y                Z
 ----------------------------------------------------------------
    1      O       0.0000000000     0.0000000000    -0.6037600000
    2      O       0.0000000000     0.0000000000     0.6037600000
 ----------------------------------------------------------------
 Molecular Point Group                 D2h   NOp =  8
 Largest Abelian Subgroup              D2h   NOp =  8
 Nuclear Repulsion Energy =          28.04702323 hartrees
 There are        9 alpha and        7 beta electrons
 Requested basis set is STO-3G
 There are 4 shells and 10 basis functions

 Q-Chem warning in module libmdc/get_mega.C, line 167:

 Allowed MEM_STATIC has been capped at MEM_STATIC=8191.
 Reduce the value of MEM_STATIC to silence this warning.


 Total QAlloc Memory Limit  60000 MB
 Mega-Array Size      8007 MB
 MEM_STATIC part      8191 MB


                       Distance Matrix (Angstroms)
             O (  1)
   O (  2)  1.207520
 
 A cutoff of  1.0D-09 yielded     10 shell pairs
 There are        67 function pairs
 Smallest overlap matrix eigenvalue = 3.59E-01

 Scale SEOQF with 1.000000e+00/1.000000e+00/1.000000e+00

 Standard Electronic Orientation quadrupole field applied
 Nucleus-field energy     =    -0.0000000062 hartrees
 Guess from superposition of atomic densities
 Warning:  Energy on first SCF cycle will be non-variational
 SAD guess density has 16.000000 electrons

 -----------------------------------------------------------------------
  General SCF calculation program by
  Eric Jon Sundstrom, Paul Horn, Yuezhi Mao, Dmitri Zuev, Alec White,
  David Stuck, Shaama M.S., Shane Yost, Joonho Lee, David Small,
  Daniel Levine, Susi Lehtola, Hugh Burton, Evgeny Epifanovsky,
  Bang C. Huynh
 -----------------------------------------------------------------------
 Hartree-Fock
 Orthonormalizing orbitals
 A restricted open-shell SCF calculation will be
 performed using DIIS, GDM
 SCF converges when RMS gradient is below 1.0e-05
 ---------------------------------------
  Cycle       Energy         DIIS error
 ---------------------------------------
    1    -145.9440519879      8.11e-01  
    2    -147.5391993820      4.61e-01  
    3    -147.6273928465      1.25e-01  
    4    -147.6318082558      8.88e-03  Done DIIS. Switching to GDM
 ---------------------------------------
  Cycle       Energy        RMS Gradient
 ---------------------------------------
    1    -147.6318082558      2.37e-02   Normal BFGS step
    2    -147.6321516442      5.06e-03   Normal BFGS step
    3    -147.6321679744      1.10e-05   Normal BFGS step
    4    -147.6321679777      1.92e-07  Convergence criterion met
The disked orbital energies are calculated using alpha and beta Focks
 ---------------------------------------
 Alpha HF Exchange    Energy =  -9.07787385538795
 Beta HF Exchange     Energy =  -7.41293660492874
 Nuclear Attraction   Energy =   0.00000000000000
 One-Electron (alpha) Energy = -139.83564871704451
 One-Electron (beta)  Energy = -120.41545566192434
 Total Coulomb        Energy = 101.06272363744520
 Final Alpha MO Eigenvalues
            1           2           3           4           5           6
    1 -20.4405564 -20.4394746  -1.6152898  -1.0895426  -0.6182523  -0.7154102
            7           8           9          10
    1  -0.7154102  -0.4114877  -0.4114877   0.6935632
 Final Beta MO Eigenvalues
            1           2           3           4           5           6
    1 -20.4104816 -20.4103441  -1.4944935  -0.8957782  -0.5467067  -0.4462812
            7           8           9          10
    1  -0.4462812   0.2698799   0.2698799   0.7754193
 SCF time:   CPU 0.08s  wall 1.00s 
<S^2> =          2.000000000
 SCF   energy in the final basis set =     -147.6321679777
 Total energy in the final basis set =     -147.6321679777
  
     ##========================================##
     ||                                        ||
     ||              R A S M A N 2             ||
     ||________________________________________||
     ||                                        ||
     ||  Author:                               ||
     ||                                        ||
     ||        David Casanova (2010)           ||
     ||                                        ||
     ##========================================##
  
Setting single-point xc-functionals (if necessary)

  ***************************************************
  *  RAS-CI Dimensions:                             *
  *                                                 *
  *  Active Elec.:  16 ( 9, 7)   Active Orb.:  10   *
  *  Doubly Occ. :   0           Doubly Vir.:   0   *
  *  Frozen Occ. :   0           Frozen Vir.:   0   *
  *                                                 *
  *  Total CI configurations:      1200             * 
  *    Active configurations:      1200             * 
  *      Hole configurations:         0             * 
  *  Particle configurations:         0             * 
  *                                                 *
  *   Requested states:       10                    *
  *  Spin multiplicity: Any multiplicity            *
  *                                                 *
  ***************************************************
-----------------------------------------
    Memory requirements of RASCI

 Each CI-vector requires      0.01 MiB 
 Max. subspace vectors           1200      

 Reduced Lists                0.00 MiB 
 Excitation Lists             0.00 MiB 
 Excitation Lists Sign        0.00 MiB 
 CI-space (Max)              22.07 MiB 
 Integrals                    0.14 MiB 
 Memory required (Max)       22.08 MiB 
 Memory available          7811.55 MiB 

    Disk requirements of RASCI

 Fock matrix                  0.00 MiB 
 2-electron integrals         0.15 MiB 
 CI-space                    21.97 MiB 
 Disk required               22.13 MiB 
-----------------------------------------
  
RAS1 HF-like energy:             28.0470232242
 Computing integrals
 Computing J and K matrices
 Computing addressing
 Making amplitude guesses
 
Direct CI diagonalization
 ---------------------------------------------------
 Iter    Rts Conv    Rts Left    Ttl Dev     Max Dev
 ---------------------------------------------------
   1         0          10      0.105494    0.015936
   2         0          10      0.156881    0.020233
   3         0          10      0.068385    0.010293
   4         0          10      0.055315    0.011030
   5         0          10      0.042529    0.008305
   6         0          10      0.023235    0.005113
   7         0          10      0.031633    0.006385
   8         0          10      0.015511    0.004167
   9         0          10      0.015052    0.003560
  10         0          10      0.017406    0.005818
  11         0          10      0.009645    0.002984
  12         0          10      0.008261    0.002812
  13         0          10      0.014353    0.006098
  14         0          10      0.007697    0.003250
  15         0          10      0.011914    0.005554
  16         0          10      0.010326    0.004692
  17         1           9      0.004198    0.001872
  18         1           9      0.004351    0.001989
  19         3           7      0.003687    0.001693
  20         3           7      0.003187    0.001524
  21         3           7      0.008072    0.003951
  22         3           7      0.007005    0.003453
  23         3           7      0.034152    0.017728
  24         3           7      0.057573    0.023905
  25         3           7      0.018396    0.008290
  26         4           6      0.029892    0.015801
  27         5           5      0.012765    0.005866
  28         7           3      0.005545    0.002550
  29         7           3      0.009986    0.004503
  30         7           3      0.004250    0.001975
  31         7           3      0.004538    0.002057
  32         8           2      0.002630    0.001317
  33         7           3      0.001918    0.000995
  34         7           3      0.001521    0.000937
  35         8           2      0.000945    0.000410
  36         8           2      0.000568    0.000327
  37         8           2      0.000555    0.000326
  38         7           3      0.000166    0.000075
  39         7           3      0.000230    0.000094
  40         7           3      0.000108    0.000050
  41         8           2      0.000066    0.000040
  42         8           2      0.000095    0.000050
  43         8           2      0.000038    0.000017
  44         8           2      0.000036    0.000021
  45         8           2      0.000032    0.000015
  46         8           2      0.000018    0.000005
  47         8           2      0.000023    0.000008
  48         8           2      0.000019    0.000005
  49        10           0      0.000011    0.000002    Roots Converged
 ---------------------------------------------------
   
**************************************************
 RAS-CI total energy for state   1:   -147.744041585792
  Excitation energy (eV) =  0.000000000000
  State symmetry: B1g   (D2h      )
  <S^2>      :  2.0000
  Dipole Moment:   -0.0000 X    -0.0000 Y    -0.0000 Z
 NATURAL OCCUPATION NUMBERS (higher than 1.0E-05)
            1           2           3           4           5           6
    1   1.9999992   1.9999991   1.9991668   1.9960890   1.9599028   1.9561167
            7           8           9          10
    1   1.9561167   1.0432604   1.0432604   0.0460888
 Created directory ./qchem84864/plots

  Amplitudes : 
  
 | HOLE  | ALPHA      | BETA       | PART  |    AMPLITUDE 
--------------------------------------------------
 |       | 1111111110 | 1111111000 |       |     9.6636434702239E-01
 |       | 1111111110 | 1111100110 |       |    -1.6887409783657E-01
--------------------------------------------------
*** Contributions RASCI wfn    Active: 100.00
                                 Hole:   0.00
                                 Part:   0.00

      Mulliken population analysis 
 ---------------------------------------------------
   Atom    Charge (a.u.)   Spin (a.u.)  
 ---------------------------------------------------
   1  O    0.000000        1.000000 
   2  O    0.000000        1.000000 
 ---------------------------------------------------
   Sum:    0.000000        2.000000 
 ---------------------------------------------------
 
  
 NATURAL OCCUPATION NUMBERS (higher than 1.0E-05)
            1           2           3           4           5           6
    1   1.9999992   1.9999991   1.9991668   1.9960890   1.9599028   1.9561167
            7           8           9          10
    1   1.9561167   1.0432604   1.0432604   0.0460888
  
*** Unpaired Electrons
 Yamaguchi Nd:         2.35
 Head-Gordon Nu:       2.09
 Head-Gordon Nu_nl:    2.02
  
**************************************************
 RAS-CI total energy for state   2:   -147.515835114452
  Excitation energy (eV) =  6.209814030607
  Warning: not all configurations have same symmetry
  State symmetry: *B1u   (D2h      )
  <S^2>      :  2.0000
  Dipole Moment:    0.0000 X     0.0000 Y     0.0000 Z
  Trans. Moment:    0.0000 X     0.0000 Y     0.0000 Z
  Strength   :  0.000000
  Natural transition orbitals ( 1 -> 2 ):
   e-/hole pair  1 alpha:  ampl =  0.000419 (  0.0%)   [10 : 11]
   e-/hole pair  2 alpha:  ampl =  0.000419 (  0.0%)   [9 : 12]
   e-/hole pair  1 beta :  ampl =  0.685015 ( 46.9%)   [10 : 11]
   e-/hole pair  2 beta :  ampl =  0.685015 ( 46.9%)   [9 : 12]
   Sum of square amplitudes: 0.97

 NATURAL OCCUPATION NUMBERS (higher than 1.0E-05)
            1           2           3           4           5           6
    1   1.9999993   1.9999992   1.9991993   1.9973526   1.9750583   1.5008425
            7           8           9          10
    1   1.5008425   1.4982022   1.4982022   0.0303019

  Amplitudes : 
  
 | HOLE  | ALPHA      | BETA       | PART  |    AMPLITUDE 
--------------------------------------------------
 |       | 1111111110 | 1111110100 |       |    -6.8385049192458E-01
 |       | 1111111110 | 1111110010 |       |     1.5265890128042E-01
 |       | 1111111110 | 1111101100 |       |     1.5265890128054E-01
 |       | 1111111110 | 1111101010 |       |     6.8385049192994E-01
--------------------------------------------------
*** Contributions RASCI wfn    Active: 100.00
                                 Hole:   0.00
                                 Part:   0.00

      Mulliken population analysis 
 ---------------------------------------------------
   Atom    Charge (a.u.)   Spin (a.u.)  
 ---------------------------------------------------
   1  O    0.000000        1.000000 
   2  O    0.000000        1.000000 
 ---------------------------------------------------
   Sum:    0.000000        2.000000 
 ---------------------------------------------------
 
  
 NATURAL OCCUPATION NUMBERS (higher than 1.0E-05)
            1           2           3           4           5           6
    1   1.9999993   1.9999992   1.9991993   1.9973526   1.9750583   1.5008425
            7           8           9          10
    1   1.5008425   1.4982022   1.4982022   0.0303019
  
*** Unpaired Electrons
 Yamaguchi Nd:         3.12
 Head-Gordon Nu:       2.06
 Head-Gordon Nu_nl:    2.26
  
**************************************************
 RAS-CI total energy for state   3:   -147.515835114452
  Excitation energy (eV) =  6.209814030609
  Warning: not all configurations have same symmetry
  State symmetry: *B1u   (D2h      )
  <S^2>      :  2.0000
  Dipole Moment:    0.0000 X    -0.0000 Y    -0.0000 Z
  Trans. Moment:   -0.0000 X     0.0000 Y     0.0000 Z
  Strength   :  0.000000
  Natural transition orbitals ( 1 -> 3 ):
   e-/hole pair  1 alpha:  ampl =  0.000419 (  0.0%)   [10 : 11]
   e-/hole pair  2 alpha:  ampl =  0.000419 (  0.0%)   [9 : 12]
   e-/hole pair  1 beta :  ampl =  0.685015 ( 46.9%)   [10 : 11]
   e-/hole pair  2 beta :  ampl =  0.685015 ( 46.9%)   [9 : 12]
   Sum of square amplitudes: 0.97

 NATURAL OCCUPATION NUMBERS (higher than 1.0E-05)
            1           2           3           4           5           6
    1   1.9999993   1.9999992   1.9991993   1.9973526   1.9750583   1.5008425
            7           8           9          10
    1   1.5008425   1.4982022   1.4982022   0.0303019

  Amplitudes : 
  
 | HOLE  | ALPHA      | BETA       | PART  |    AMPLITUDE 
--------------------------------------------------
 |       | 1111111110 | 1111110100 |       |     1.5265890127983E-01
 |       | 1111111110 | 1111110010 |       |     6.8385049192710E-01
 |       | 1111111110 | 1111101100 |       |     6.8385049192742E-01
 |       | 1111111110 | 1111101010 |       |    -1.5265890128113E-01
--------------------------------------------------
*** Contributions RASCI wfn    Active: 100.00
                                 Hole:   0.00
                                 Part:   0.00

      Mulliken population analysis 
 ---------------------------------------------------
   Atom    Charge (a.u.)   Spin (a.u.)  
 ---------------------------------------------------
   1  O    0.000000        1.000000 
   2  O    0.000000        1.000000 
 ---------------------------------------------------
   Sum:    0.000000        2.000000 
 ---------------------------------------------------
 
  
 NATURAL OCCUPATION NUMBERS (higher than 1.0E-05)
            1           2           3           4           5           6
    1   1.9999993   1.9999992   1.9991993   1.9973526   1.9750583   1.5008425
            7           8           9          10
    1   1.5008425   1.4982022   1.4982022   0.0303019
  
*** Unpaired Electrons
 Yamaguchi Nd:         3.12
 Head-Gordon Nu:       2.06
 Head-Gordon Nu_nl:    2.26
  
**************************************************
 RAS-CI total energy for state   4:   -147.511783381512
  Excitation energy (eV) =  6.320067293416
  State symmetry: B1u   (D2h      )
  <S^2>      :  2.0000
  Dipole Moment:    0.0000 X     0.0000 Y     0.0000 Z
  Trans. Moment:   -0.0000 X     0.0000 Y    -0.0000 Z
  Strength   :  0.000000
  Natural transition orbitals ( 1 -> 4 ):
   e-/hole pair  1 alpha:  ampl =  0.001133 (  0.0%)   [10 : 11]
   e-/hole pair  2 alpha:  ampl =  0.001133 (  0.0%)   [9 : 12]
   e-/hole pair  1 beta :  ampl =  0.684794 ( 46.9%)   [10 : 11]
   e-/hole pair  2 beta :  ampl =  0.684794 ( 46.9%)   [9 : 12]
   Sum of square amplitudes: 0.97

 NATURAL OCCUPATION NUMBERS (higher than 1.0E-05)
            1           2           3           4           5           6
    1   1.9999991   1.9999991   1.9989140   1.9969024   1.9749011   1.5010620
            7           8           9          10
    1   1.5010620   1.4983345   1.4983345   0.0304912

  Amplitudes : 
  
 | HOLE  | ALPHA      | BETA       | PART  |    AMPLITUDE 
--------------------------------------------------
 |       | 1111111110 | 1111110100 |       |     7.0048957803301E-01
 |       | 1111111110 | 1111101010 |       |     7.0048957802749E-01
--------------------------------------------------
*** Contributions RASCI wfn    Active: 100.00
                                 Hole:   0.00
                                 Part:   0.00

      Mulliken population analysis 
 ---------------------------------------------------
   Atom    Charge (a.u.)   Spin (a.u.)  
 ---------------------------------------------------
   1  O    0.000000        1.000000 
   2  O    0.000000        1.000000 
 ---------------------------------------------------
   Sum:    0.000000        2.000000 
 ---------------------------------------------------
 
  
 NATURAL OCCUPATION NUMBERS (higher than 1.0E-05)
            1           2           3           4           5           6
    1   1.9999991   1.9999991   1.9989140   1.9969024   1.9749011   1.5010620
            7           8           9          10
    1   1.5010620   1.4983345   1.4983345   0.0304912
  
*** Unpaired Electrons
 Yamaguchi Nd:         3.12
 Head-Gordon Nu:       2.06
 Head-Gordon Nu_nl:    2.26
  
**************************************************
 RAS-CI total energy for state   5:   -147.438926225255
  Excitation energy (eV) =  8.302611383877
  Warning: not all configurations have same symmetry
  State symmetry: *B3g   (D2h      )
  <S^2>      :  2.0000
  Dipole Moment:    0.0000 X     0.0000 Y     0.0000 Z
  Trans. Moment:    0.0000 X     0.0000 Y    -0.0000 Z
  Strength   :  0.000000
  Natural transition orbitals ( 1 -> 5 ):
   e-/hole pair  1 alpha:  ampl =  0.013236 (  0.0%)   [10 : 11]
   e-/hole pair  2 alpha:  ampl =  0.007725 (  0.0%)   [9 : 12]
   e-/hole pair  1 beta :  ampl =  0.958069 ( 91.8%)   [10 : 11]
   e-/hole pair  2 beta :  ampl =  0.080314 (  0.6%)   [9 : 12]
   Sum of square amplitudes: 0.92

 NATURAL OCCUPATION NUMBERS (higher than 1.0E-05)
            1           2           3           4           5           6
    1   1.9999967   1.9999966   1.9991488   1.9975122   1.9937412   1.9744341
            7           8           9          10
    1   1.9714418   1.0274919   1.0032653   0.0329715

  Amplitudes : 
  
 | HOLE  | ALPHA      | BETA       | PART  |    AMPLITUDE 
--------------------------------------------------
 |       | 1111111110 | 1111011100 |       |     9.3695215505506E-01
 |       | 1111111110 | 1111011010 |       |     2.8147756796063E-01
 |       | 1111111110 | 1110110110 |       |     1.0890494389185E-01
--------------------------------------------------
*** Contributions RASCI wfn    Active: 100.00
                                 Hole:   0.00
                                 Part:   0.00

      Mulliken population analysis 
 ---------------------------------------------------
   Atom    Charge (a.u.)   Spin (a.u.)  
 ---------------------------------------------------
   1  O    0.000000        1.000000 
   2  O   -0.000000        1.000000 
 ---------------------------------------------------
   Sum:    0.000000        2.000000 
 ---------------------------------------------------
 
  
 NATURAL OCCUPATION NUMBERS (higher than 1.0E-05)
            1           2           3           4           5           6
    1   1.9999967   1.9999966   1.9991488   1.9975122   1.9937412   1.9744341
            7           8           9          10
    1   1.9714418   1.0274919   1.0032653   0.0329715
  
*** Unpaired Electrons
 Yamaguchi Nd:         2.19
 Head-Gordon Nu:       2.07
 Head-Gordon Nu_nl:    2.01
  
**************************************************
 RAS-CI total energy for state   6:   -147.438926225255
  Excitation energy (eV) =  8.302611383887
  Warning: not all configurations have same symmetry
  State symmetry: *B2g   (D2h      )
  <S^2>      :  2.0000
  Dipole Moment:    0.0000 X    -0.0000 Y     0.0000 Z
  Trans. Moment:    0.0000 X    -0.0000 Y     0.0000 Z
  Strength   :  0.000000
  Natural transition orbitals ( 1 -> 6 ):
   e-/hole pair  1 alpha:  ampl =  0.013236 (  0.0%)   [10 : 11]
   e-/hole pair  2 alpha:  ampl =  0.007725 (  0.0%)   [9 : 12]
   e-/hole pair  1 beta :  ampl =  0.958069 ( 91.8%)   [10 : 11]
   e-/hole pair  2 beta :  ampl =  0.080314 (  0.6%)   [9 : 12]
   Sum of square amplitudes: 0.92

 NATURAL OCCUPATION NUMBERS (higher than 1.0E-05)
            1           2           3           4           5           6
    1   1.9999967   1.9999966   1.9991488   1.9975122   1.9937412   1.9744341
            7           8           9          10
    1   1.9714418   1.0274919   1.0032653   0.0329715

  Amplitudes : 
  
 | HOLE  | ALPHA      | BETA       | PART  |    AMPLITUDE 
--------------------------------------------------
 |       | 1111111110 | 1111011100 |       |    -2.8147756796077E-01
 |       | 1111111110 | 1111011010 |       |     9.3695215505533E-01
 |       | 1111111110 | 1110101110 |       |     1.0890494389642E-01
--------------------------------------------------
*** Contributions RASCI wfn    Active: 100.00
                                 Hole:   0.00
                                 Part:   0.00

      Mulliken population analysis 
 ---------------------------------------------------
   Atom    Charge (a.u.)   Spin (a.u.)  
 ---------------------------------------------------
   1  O    0.000000        1.000000 
   2  O   -0.000000        1.000000 
 ---------------------------------------------------
   Sum:    0.000000        2.000000 
 ---------------------------------------------------
 
  
 NATURAL OCCUPATION NUMBERS (higher than 1.0E-05)
            1           2           3           4           5           6
    1   1.9999967   1.9999966   1.9991488   1.9975122   1.9937412   1.9744341
            7           8           9          10
    1   1.9714418   1.0274919   1.0032653   0.0329715
  
*** Unpaired Electrons
 Yamaguchi Nd:         2.19
 Head-Gordon Nu:       2.07
 Head-Gordon Nu_nl:    2.01
  
**************************************************
 RAS-CI total energy for state   7:   -147.351133779323
  Excitation energy (eV) = 10.691565383864
  State symmetry: Au    (D2h      )
  <S^2>      :  2.0000
  Dipole Moment:   -0.0000 X    -0.0000 Y    -0.0000 Z
  Trans. Moment:    0.0000 X     0.0000 Y    -0.6275 Z
  Strength   :  0.103133
  Natural transition orbitals ( 1 -> 7 ):
   e-/hole pair  1 alpha:  ampl =  0.281735 (  7.9%)   [10 : 11]
   e-/hole pair  2 alpha:  ampl =  0.098282 (  1.0%)   [9 : 12]
   e-/hole pair  1 beta :  ampl =  0.635691 ( 40.4%)   [10 : 11]
   e-/hole pair  2 beta :  ampl =  0.635691 ( 40.4%)   [9 : 12]
   Sum of square amplitudes: 0.95

 NATURAL OCCUPATION NUMBERS (higher than 1.0E-05)
            1           2           3           4           5           6
    1   1.9999990   1.9999981   1.9970573   1.9926405   1.8162463   1.5616930
            7           8           9          10
    1   1.5616930   1.4359501   1.4359501   0.1987725

  Amplitudes : 
  
 | HOLE  | ALPHA      | BETA       | PART  |    AMPLITUDE 
--------------------------------------------------
 |       | 1111111110 | 1111110010 |       |     6.3406042327897E-01
 |       | 1111111110 | 1111101100 |       |    -6.3406042327860E-01
 |       | 1111111110 | 1111011001 |       |    -2.2527834460080E-01
 |       | 1111111110 | 1111000111 |       |    -1.1292600411671E-01
 |       | 1111011111 | 1111111000 |       |    -3.0519540418906E-01
 |       | 1111011111 | 1111100110 |       |    -1.2058126755615E-01
--------------------------------------------------
*** Contributions RASCI wfn    Active: 100.00
                                 Hole:   0.00
                                 Part:   0.00

      Mulliken population analysis 
 ---------------------------------------------------
   Atom    Charge (a.u.)   Spin (a.u.)  
 ---------------------------------------------------
   1  O    0.000000        1.000000 
   2  O    0.000000        1.000000 
 ---------------------------------------------------
   Sum:    0.000000        2.000000 
 ---------------------------------------------------
 
  
 NATURAL OCCUPATION NUMBERS (higher than 1.0E-05)
            1           2           3           4           5           6
    1   1.9999990   1.9999981   1.9970573   1.9926405   1.8162463   1.5616930
            7           8           9          10
    1   1.5616930   1.4359501   1.4359501   0.1987725
  
*** Unpaired Electrons
 Yamaguchi Nd:         3.70
 Head-Gordon Nu:       2.40
 Head-Gordon Nu_nl:    2.49
  
**************************************************
 RAS-CI total energy for state   8:   -147.302902677533
  Excitation energy (eV) = 12.004000438168
  Warning: not all configurations have same symmetry
  State symmetry: *B3u   (D2h      )
  <S^2>      :  2.0000
  Dipole Moment:    0.0000 X     0.0000 Y    -0.0000 Z
  Trans. Moment:    0.0220 X     0.0523 Y    -0.0000 Z
  Strength   :  0.000946
  Natural transition orbitals ( 1 -> 8 ):
   e-/hole pair  1 alpha:  ampl =  0.934725 ( 87.4%)   [10 : 11]
   e-/hole pair  2 alpha:  ampl =  0.038262 (  0.1%)   [9 : 12]
   e-/hole pair  1 beta :  ampl =  0.116270 (  1.4%)   [10 : 11]
   e-/hole pair  2 beta :  ampl =  0.023049 (  0.1%)   [9 : 12]
   Sum of square amplitudes: 0.89

 NATURAL OCCUPATION NUMBERS (higher than 1.0E-05)
            1           2           3           4           5           6
    1   1.9999994   1.9999992   1.9967834   1.9813757   1.9798220   1.9534632
            7           8           9          10
    1   1.8573470   1.0458101   1.0009349   0.1844651

  Amplitudes : 
  
 | HOLE  | ALPHA      | BETA       | PART  |    AMPLITUDE 
--------------------------------------------------
 |       | 1111111110 | 1110111010 |       |     1.1071457700204E-01
 |       | 1111111101 | 1111111000 |       |    -8.6442863217497E-01
 |       | 1111111011 | 1111111000 |       |    -3.6406277839844E-01
 |       | 1111110111 | 1111110010 |       |    -1.9793285279318E-01
 |       | 1111110111 | 1111101100 |       |     1.3426725078805E-01
--------------------------------------------------
*** Contributions RASCI wfn    Active: 100.00
                                 Hole:   0.00
                                 Part:   0.00

      Mulliken population analysis 
 ---------------------------------------------------
   Atom    Charge (a.u.)   Spin (a.u.)  
 ---------------------------------------------------
   1  O   -0.000000        1.000000 
   2  O    0.000000        1.000000 
 ---------------------------------------------------
   Sum:    0.000000        2.000000 
 ---------------------------------------------------
 
  
 NATURAL OCCUPATION NUMBERS (higher than 1.0E-05)
            1           2           3           4           5           6
    1   1.9999994   1.9999992   1.9967834   1.9813757   1.9798220   1.9534632
            7           8           9          10
    1   1.8573470   1.0458101   1.0009349   0.1844651
  
*** Unpaired Electrons
 Yamaguchi Nd:         2.77
 Head-Gordon Nu:       2.37
 Head-Gordon Nu_nl:    2.19
  
**************************************************
 RAS-CI total energy for state   9:   -147.302902677252
  Excitation energy (eV) = 12.004000445830
  Warning: not all configurations have same symmetry
  State symmetry: *B2u   (D2h      )
  <S^2>      :  2.0000
  Dipole Moment:   -0.0000 X     0.0000 Y     0.0000 Z
  Trans. Moment:   -0.0523 X     0.0220 Y     0.0000 Z
  Strength   :  0.000946
  Natural transition orbitals ( 1 -> 9 ):
   e-/hole pair  1 alpha:  ampl =  0.934724 ( 87.4%)   [10 : 11]
   e-/hole pair  2 alpha:  ampl =  0.038262 (  0.1%)   [9 : 12]
   e-/hole pair  1 beta :  ampl =  0.116271 (  1.4%)   [10 : 11]
   e-/hole pair  2 beta :  ampl =  0.023049 (  0.1%)   [9 : 12]
   Sum of square amplitudes: 0.89

 NATURAL OCCUPATION NUMBERS (higher than 1.0E-05)
            1           2           3           4           5           6
    1   1.9999994   1.9999992   1.9967837   1.9813764   1.9798230   1.9534631
            7           8           9          10
    1   1.8573452   1.0458105   1.0009338   0.1844657

  Amplitudes : 
  
 | HOLE  | ALPHA      | BETA       | PART  |    AMPLITUDE 
--------------------------------------------------
 |       | 1111111110 | 1110111100 |       |     1.1071506766698E-01
 |       | 1111111101 | 1111111000 |       |    -3.6406263030732E-01
 |       | 1111111011 | 1111111000 |       |     8.6442823697180E-01
 |       | 1111101111 | 1111110010 |       |     1.3427527068169E-01
 |       | 1111101111 | 1111101100 |       |    -1.9793410480865E-01
--------------------------------------------------
*** Contributions RASCI wfn    Active: 100.00
                                 Hole:   0.00
                                 Part:   0.00

      Mulliken population analysis 
 ---------------------------------------------------
   Atom    Charge (a.u.)   Spin (a.u.)  
 ---------------------------------------------------
   1  O    0.000000        1.000000 
   2  O   -0.000000        1.000000 
 ---------------------------------------------------
   Sum:    0.000000        2.000000 
 ---------------------------------------------------
 
  
 NATURAL OCCUPATION NUMBERS (higher than 1.0E-05)
            1           2           3           4           5           6
    1   1.9999994   1.9999992   1.9967837   1.9813764   1.9798230   1.9534631
            7           8           9          10
    1   1.8573452   1.0458105   1.0009338   0.1844657
  
*** Unpaired Electrons
 Yamaguchi Nd:         2.77
 Head-Gordon Nu:       2.37
 Head-Gordon Nu_nl:    2.19
  
**************************************************
 RAS-CI total energy for state  10:   -147.170426780562
  Excitation energy (eV) = 15.608853003917
  Warning: not all configurations have same symmetry
  State symmetry: *B3u   (D2h      )
  <S^2>      :  2.0000
  Dipole Moment:    0.0000 X    -0.0000 Y    -0.0000 Z
  Trans. Moment:    0.3313 X    -0.1223 Y     0.0000 Z
  Strength   :  0.047687
  Natural transition orbitals ( 1 -> 10 ):
   e-/hole pair  1 alpha:  ampl =  0.083659 (  0.7%)   [10 : 11]
   e-/hole pair  2 alpha:  ampl =  0.010375 (  0.0%)   [9 : 12]
   e-/hole pair  1 beta :  ampl =  0.498148 ( 24.8%)   [10 : 11]
   e-/hole pair  2 beta :  ampl =  0.133925 (  1.8%)   [9 : 12]
   Sum of square amplitudes: 0.27

 NATURAL OCCUPATION NUMBERS (higher than 1.0E-05)
            1           2           3           4           5           6
    1   1.9999975   1.9999971   1.9957505   1.9879055   1.9835321   1.7298893
            7           8           9          10
    1   1.7078914   1.2904270   1.2636515   0.0409580

  Amplitudes : 
  
 | HOLE  | ALPHA      | BETA       | PART  |    AMPLITUDE 
--------------------------------------------------
 |       | 1111111110 | 1111010110 |       |     7.8631121943242E-01
 |       | 1111111110 | 1111001110 |       |     2.9029181427449E-01
 |       | 1111111110 | 1110111100 |       |     4.8112165838696E-01
 |       | 1111111110 | 1110111010 |       |     1.7762136745907E-01
--------------------------------------------------
*** Contributions RASCI wfn    Active: 100.00
                                 Hole:   0.00
                                 Part:   0.00

      Mulliken population analysis 
 ---------------------------------------------------
   Atom    Charge (a.u.)   Spin (a.u.)  
 ---------------------------------------------------
   1  O   -0.000000        1.000000 
   2  O    0.000000        1.000000 
 ---------------------------------------------------
   Sum:    0.000000        2.000000 
 ---------------------------------------------------
 
  
 NATURAL OCCUPATION NUMBERS (higher than 1.0E-05)
            1           2           3           4           5           6
    1   1.9999975   1.9999971   1.9957505   1.9879055   1.9835321   1.7298893
            7           8           9          10
    1   1.7078914   1.2904270   1.2636515   0.0409580
  
*** Unpaired Electrons
 Yamaguchi Nd:         2.96
 Head-Gordon Nu:       2.08
 Head-Gordon Nu_nl:    2.18
  
--------------------------------------------------
 Interstate Transition Properties
--------------------------------------------------
State A: Root  1
State B: Root  2
  
Angular momentum components
< B | Lx | A > =     0.000000088i
< B | Ly | A > =    -0.000000135i
< B | Lz | A > =    -0.000000000i
  
Norm of one-particle transition density matrix
||gamma^AB||_total       =  0.983877
||gamma^AB||_symmetrized =  0.806510
||gamma^AB||_anti-symm   =  0.563520
  
Spin-orbit couplings
 Using HF (reference) density for the 2-elec mean-field SOC contribution
KET: S',Sz' (Root   1) =  1.000 1.000
BRA: S ,Sz  (Root   2) =  1.000 1.000
Clebsh-Gordan coefficient: < 1.000, 1.000; 1.000, 0.000| 1.000, 1.000> =  0.707
 Computing 1e-SO integrals
 1e Reduced matrix elements (cm-1)
<S|| Hso(L-) ||S'> =    -0.0000126986     0.0000083103
<S|| Hso(L0) ||S'> =     0.0000000000     0.0000000000
<S|| Hso(L+) ||S'> =    -0.0000126986    -0.0000083103
 1-elec SOC matrix (cm-1): < B(S,Sz) | Hso(1e) | A(S',Sz') >
                     |Sz'=-1.00>              |Sz'= 0.00>              |Sz'= 1.00>
 <Sz=-1.00|    0.000000   -0.000000i    -0.000009   -0.000006i    -0.000000   -0.000000i
 <Sz= 0.00|    0.000009   -0.000006i     0.000000    0.000000i    -0.000009   -0.000006i
 <Sz= 1.00|   -0.000000    0.000000i     0.000009   -0.000006i     0.000000    0.000000i
1-elec SOCC =     0.000021462 cm-1
 Computing 2e-SOMF integrals
 Averagin spin alpha/beta reference densities
 2e-SOMF Reduced matrix elements (cm-1)
<S|| Hso(L-) ||S'> =     0.0000047477    -0.0000031071
<S|| Hso(L0) ||S'> =     0.0000000000    -0.0000000000
<S|| Hso(L+) ||S'> =     0.0000047477     0.0000031071
 2-elec mean-field SOC matrix (cm-1): < B(S,Sz) | Hso(2e-mf) | A(S',Sz') >
                     |Sz'=-1.00>              |Sz'= 0.00>              |Sz'= 1.00>
 <Sz=-1.00|   -0.000000    0.000000i     0.000003    0.000002i     0.000000    0.000000i
 <Sz= 0.00|   -0.000003    0.000002i    -0.000000   -0.000000i     0.000003    0.000002i
 <Sz= 1.00|    0.000000   -0.000000i    -0.000003    0.000002i    -0.000000   -0.000000i
 Total mean-field SOC matrix (cm-1): < B(S,Sz) | Hsomf | A(S',Sz') >
                     |Sz'=-1.00>              |Sz'= 0.00>              |Sz'= 1.00>
 <Sz=-1.00|    0.000000   -0.000000i    -0.000006   -0.000004i    -0.000000   -0.000000i
 <Sz= 0.00|    0.000006   -0.000004i     0.000000    0.000000i    -0.000006   -0.000004i
 <Sz= 1.00|   -0.000000    0.000000i     0.000006   -0.000004i     0.000000    0.000000i
Mean-Field SOCC =     0.000013438 cm-1
   
**************************************************
State A: Root  1
State B: Root  3
  
Angular momentum components
< B | Lx | A > =     0.000000135i
< B | Ly | A > =     0.000000088i
< B | Lz | A > =    -0.000000000i
  
Norm of one-particle transition density matrix
||gamma^AB||_total       =  0.983877
||gamma^AB||_symmetrized =  0.806510
||gamma^AB||_anti-symm   =  0.563520
  
Spin-orbit couplings
 Using HF (reference) density for the 2-elec mean-field SOC contribution
KET: S',Sz' (Root   1) =  1.000 1.000
BRA: S ,Sz  (Root   3) =  1.000 1.000
Clebsh-Gordan coefficient: < 1.000, 1.000; 1.000, 0.000| 1.000, 1.000> =  0.707
 Reading 1e-SO integrals
 1e Reduced matrix elements (cm-1)
<S|| Hso(L-) ||S'> =     0.0000083103     0.0000126986
<S|| Hso(L0) ||S'> =     0.0000000000     0.0000000000
<S|| Hso(L+) ||S'> =     0.0000083103    -0.0000126986
 1-elec SOC matrix (cm-1): < B(S,Sz) | Hso(1e) | A(S',Sz') >
                     |Sz'=-1.00>              |Sz'= 0.00>              |Sz'= 1.00>
 <Sz=-1.00|   -0.000000   -0.000000i     0.000006   -0.000009i     0.000000   -0.000000i
 <Sz= 0.00|   -0.000006   -0.000009i    -0.000000    0.000000i     0.000006   -0.000009i
 <Sz= 1.00|    0.000000    0.000000i    -0.000006   -0.000009i    -0.000000    0.000000i
1-elec SOCC =     0.000021462 cm-1
 Reading 2e-SOMF integrals
 2e-SOMF Reduced matrix elements (cm-1)
<S|| Hso(L-) ||S'> =    -0.0000031071    -0.0000047477
<S|| Hso(L0) ||S'> =     0.0000000000    -0.0000000000
<S|| Hso(L+) ||S'> =    -0.0000031071     0.0000047477
 2-elec mean-field SOC matrix (cm-1): < B(S,Sz) | Hso(2e-mf) | A(S',Sz') >
                     |Sz'=-1.00>              |Sz'= 0.00>              |Sz'= 1.00>
 <Sz=-1.00|    0.000000    0.000000i    -0.000002    0.000003i    -0.000000    0.000000i
 <Sz= 0.00|    0.000002    0.000003i     0.000000   -0.000000i    -0.000002    0.000003i
 <Sz= 1.00|   -0.000000   -0.000000i     0.000002    0.000003i     0.000000   -0.000000i
 Total mean-field SOC matrix (cm-1): < B(S,Sz) | Hsomf | A(S',Sz') >
                     |Sz'=-1.00>              |Sz'= 0.00>              |Sz'= 1.00>
 <Sz=-1.00|   -0.000000   -0.000000i     0.000004   -0.000006i     0.000000   -0.000000i
 <Sz= 0.00|   -0.000004   -0.000006i    -0.000000    0.000000i     0.000004   -0.000006i
 <Sz= 1.00|    0.000000    0.000000i    -0.000004   -0.000006i    -0.000000    0.000000i
Mean-Field SOCC =     0.000013438 cm-1
   
**************************************************
State A: Root  1
State B: Root  4
  
Angular momentum components
< B | Lx | A > =     0.000000074i
< B | Ly | A > =     0.000000197i
< B | Lz | A > =     0.000000000i
  
Norm of one-particle transition density matrix
||gamma^AB||_total       =  0.983561
||gamma^AB||_symmetrized =  0.563336
||gamma^AB||_anti-symm   =  0.806253
  
Spin-orbit couplings
 Using HF (reference) density for the 2-elec mean-field SOC contribution
KET: S',Sz' (Root   1) =  1.000 1.000
BRA: S ,Sz  (Root   4) =  1.000 1.000
Clebsh-Gordan coefficient: < 1.000, 1.000; 1.000, 0.000| 1.000, 1.000> =  0.707
 Reading 1e-SO integrals
 1e Reduced matrix elements (cm-1)
<S|| Hso(L-) ||S'> =    -0.0000029792    -0.0000011332
<S|| Hso(L0) ||S'> =     0.0000000000    -0.0000000000
<S|| Hso(L+) ||S'> =    -0.0000029792     0.0000011332
 1-elec SOC matrix (cm-1): < B(S,Sz) | Hso(1e) | A(S',Sz') >
                     |Sz'=-1.00>              |Sz'= 0.00>              |Sz'= 1.00>
 <Sz=-1.00|    0.000000    0.000000i    -0.000002    0.000001i    -0.000000    0.000000i
 <Sz= 0.00|    0.000002    0.000001i     0.000000   -0.000000i    -0.000002    0.000001i
 <Sz= 1.00|   -0.000000   -0.000000i     0.000002    0.000001i     0.000000   -0.000000i
1-elec SOCC =     0.000004508 cm-1
 Reading 2e-SOMF integrals
 2e-SOMF Reduced matrix elements (cm-1)
<S|| Hso(L-) ||S'> =     0.0000011907     0.0000004525
<S|| Hso(L0) ||S'> =     0.0000000000     0.0000000000
<S|| Hso(L+) ||S'> =     0.0000011907    -0.0000004525
 2-elec mean-field SOC matrix (cm-1): < B(S,Sz) | Hso(2e-mf) | A(S',Sz') >
                     |Sz'=-1.00>              |Sz'= 0.00>              |Sz'= 1.00>
 <Sz=-1.00|   -0.000000   -0.000000i     0.000001   -0.000000i     0.000000   -0.000000i
 <Sz= 0.00|   -0.000001   -0.000000i    -0.000000    0.000000i     0.000001   -0.000000i
 <Sz= 1.00|    0.000000    0.000000i    -0.000001   -0.000000i    -0.000000    0.000000i
 Total mean-field SOC matrix (cm-1): < B(S,Sz) | Hsomf | A(S',Sz') >
                     |Sz'=-1.00>              |Sz'= 0.00>              |Sz'= 1.00>
 <Sz=-1.00|    0.000000    0.000000i    -0.000001    0.000000i    -0.000000    0.000000i
 <Sz= 0.00|    0.000001    0.000000i     0.000000   -0.000000i    -0.000001    0.000000i
 <Sz= 1.00|   -0.000000   -0.000000i     0.000001    0.000000i     0.000000   -0.000000i
Mean-Field SOCC =     0.000002706 cm-1
   
**************************************************
State A: Root  1
State B: Root  5
  
Angular momentum components
< B | Lx | A > =     0.347696078i
< B | Ly | A > =     1.157373186i
< B | Lz | A > =     0.000000000i
  
Norm of one-particle transition density matrix
||gamma^AB||_total       =  0.961599
||gamma^AB||_symmetrized =  0.681045
||gamma^AB||_anti-symm   =  0.678859
  
Spin-orbit couplings
 Using HF (reference) density for the 2-elec mean-field SOC contribution
KET: S',Sz' (Root   1) =  1.000 1.000
BRA: S ,Sz  (Root   5) =  1.000 1.000
Clebsh-Gordan coefficient: < 1.000, 1.000; 1.000, 0.000| 1.000, 1.000> =  0.707
 Reading 1e-SO integrals
 1e Reduced matrix elements (cm-1)
<S|| Hso(L-) ||S'> =    80.9924868679    24.3316247304
<S|| Hso(L0) ||S'> =     0.0000000000     0.0000000001
<S|| Hso(L+) ||S'> =    80.9924868679   -24.3316247304
 1-elec SOC matrix (cm-1): < B(S,Sz) | Hso(1e) | A(S',Sz') >
                     |Sz'=-1.00>              |Sz'= 0.00>              |Sz'= 1.00>
 <Sz=-1.00|   -0.000000   -0.000000i    57.270337  -17.205057i     0.000000   -0.000000i
 <Sz= 0.00|  -57.270337  -17.205057i    -0.000000    0.000000i    57.270337  -17.205057i
 <Sz= 1.00|    0.000000    0.000000i   -57.270337  -17.205057i    -0.000000    0.000000i
1-elec SOCC =   119.597749904 cm-1
 Reading 2e-SOMF integrals
 2e-SOMF Reduced matrix elements (cm-1)
<S|| Hso(L-) ||S'> =   -32.2786584770    -9.6970995118
<S|| Hso(L0) ||S'> =     0.0000000000    -0.0000000000
<S|| Hso(L+) ||S'> =   -32.2786584770     9.6970995118
 2-elec mean-field SOC matrix (cm-1): < B(S,Sz) | Hso(2e-mf) | A(S',Sz') >
                     |Sz'=-1.00>              |Sz'= 0.00>              |Sz'= 1.00>
 <Sz=-1.00|    0.000000    0.000000i   -22.824458    6.856885i    -0.000000    0.000000i
 <Sz= 0.00|   22.824458    6.856885i     0.000000   -0.000000i   -22.824458    6.856885i
 <Sz= 1.00|   -0.000000   -0.000000i    22.824458    6.856885i     0.000000   -0.000000i
 Total mean-field SOC matrix (cm-1): < B(S,Sz) | Hsomf | A(S',Sz') >
                     |Sz'=-1.00>              |Sz'= 0.00>              |Sz'= 1.00>
 <Sz=-1.00|   -0.000000   -0.000000i    34.445878  -10.348172i     0.000000   -0.000000i
 <Sz= 0.00|  -34.445878  -10.348172i    -0.000000    0.000000i    34.445878  -10.348172i
 <Sz= 1.00|    0.000000    0.000000i   -34.445878  -10.348172i    -0.000000    0.000000i
Mean-Field SOCC =    71.933391480 cm-1
   
**************************************************
State A: Root  1
State B: Root  6
  
Angular momentum components
< B | Lx | A > =     1.157373186i
< B | Ly | A > =    -0.347696078i
< B | Lz | A > =     0.000000000i
  
Norm of one-particle transition density matrix
||gamma^AB||_total       =  0.961599
||gamma^AB||_symmetrized =  0.681045
||gamma^AB||_anti-symm   =  0.678859
  
Spin-orbit couplings
 Using HF (reference) density for the 2-elec mean-field SOC contribution
KET: S',Sz' (Root   1) =  1.000 1.000
BRA: S ,Sz  (Root   6) =  1.000 1.000
Clebsh-Gordan coefficient: < 1.000, 1.000; 1.000, 0.000| 1.000, 1.000> =  0.707
 Reading 1e-SO integrals
 1e Reduced matrix elements (cm-1)
<S|| Hso(L-) ||S'> =   -24.3316247280    80.9924868635
<S|| Hso(L0) ||S'> =     0.0000000000     0.0000000000
<S|| Hso(L+) ||S'> =   -24.3316247280   -80.9924868635
 1-elec SOC matrix (cm-1): < B(S,Sz) | Hso(1e) | A(S',Sz') >
                     |Sz'=-1.00>              |Sz'= 0.00>              |Sz'= 1.00>
 <Sz=-1.00|    0.000000   -0.000000i   -17.205057  -57.270337i    -0.000000   -0.000000i
 <Sz= 0.00|   17.205057  -57.270337i     0.000000    0.000000i   -17.205057  -57.270337i
 <Sz= 1.00|   -0.000000    0.000000i    17.205057  -57.270337i     0.000000    0.000000i
1-elec SOCC =   119.597749897 cm-1
 Reading 2e-SOMF integrals
 2e-SOMF Reduced matrix elements (cm-1)
<S|| Hso(L-) ||S'> =     9.6970995109   -32.2786584754
<S|| Hso(L0) ||S'> =     0.0000000000    -0.0000000000
<S|| Hso(L+) ||S'> =     9.6970995109    32.2786584754
 2-elec mean-field SOC matrix (cm-1): < B(S,Sz) | Hso(2e-mf) | A(S',Sz') >
                     |Sz'=-1.00>              |Sz'= 0.00>              |Sz'= 1.00>
 <Sz=-1.00|   -0.000000    0.000000i     6.856885   22.824458i     0.000000    0.000000i
 <Sz= 0.00|   -6.856885   22.824458i    -0.000000   -0.000000i     6.856885   22.824458i
 <Sz= 1.00|    0.000000   -0.000000i    -6.856885   22.824458i    -0.000000   -0.000000i
 Total mean-field SOC matrix (cm-1): < B(S,Sz) | Hsomf | A(S',Sz') >
                     |Sz'=-1.00>              |Sz'= 0.00>              |Sz'= 1.00>
 <Sz=-1.00|    0.000000   -0.000000i   -10.348172  -34.445878i    -0.000000   -0.000000i
 <Sz= 0.00|   10.348172  -34.445878i     0.000000    0.000000i   -10.348172  -34.445878i
 <Sz= 1.00|   -0.000000    0.000000i    10.348172  -34.445878i     0.000000    0.000000i
Mean-Field SOCC =    71.933391475 cm-1
   
**************************************************
State A: Root  1
State B: Root  7
  
Angular momentum components
< B | Lx | A > =    -0.000000164i
< B | Ly | A > =     0.000000061i
< B | Lz | A > =     0.000000000i
  
Norm of one-particle transition density matrix
||gamma^AB||_total       =  0.975034
||gamma^AB||_symmetrized =  0.660024
||gamma^AB||_anti-symm   =  0.717676
  
Spin-orbit couplings
 Using HF (reference) density for the 2-elec mean-field SOC contribution
KET: S',Sz' (Root   1) =  1.000 1.000
BRA: S ,Sz  (Root   7) =  1.000 1.000
Clebsh-Gordan coefficient: < 1.000, 1.000; 1.000, 0.000| 1.000, 1.000> =  0.707
 Reading 1e-SO integrals
 1e Reduced matrix elements (cm-1)
<S|| Hso(L-) ||S'> =     0.0000075704    -0.0000201068
<S|| Hso(L0) ||S'> =     0.0000000000    -0.0000000030
<S|| Hso(L+) ||S'> =     0.0000075704     0.0000201068
 1-elec SOC matrix (cm-1): < B(S,Sz) | Hso(1e) | A(S',Sz') >
                     |Sz'=-1.00>              |Sz'= 0.00>              |Sz'= 1.00>
 <Sz=-1.00|   -0.000000    0.000000i     0.000005    0.000014i     0.000000    0.000000i
 <Sz= 0.00|   -0.000005    0.000014i    -0.000000   -0.000000i     0.000005    0.000014i
 <Sz= 1.00|    0.000000   -0.000000i    -0.000005    0.000014i    -0.000000   -0.000000i
1-elec SOCC =     0.000030384 cm-1
 Reading 2e-SOMF integrals
 2e-SOMF Reduced matrix elements (cm-1)
<S|| Hso(L-) ||S'> =    -0.0000028155     0.0000074789
<S|| Hso(L0) ||S'> =     0.0000000000     0.0000000012
<S|| Hso(L+) ||S'> =    -0.0000028155    -0.0000074789
 2-elec mean-field SOC matrix (cm-1): < B(S,Sz) | Hso(2e-mf) | A(S',Sz') >
                     |Sz'=-1.00>              |Sz'= 0.00>              |Sz'= 1.00>
 <Sz=-1.00|    0.000000   -0.000000i    -0.000002   -0.000005i    -0.000000   -0.000000i
 <Sz= 0.00|    0.000002   -0.000005i     0.000000    0.000000i    -0.000002   -0.000005i
 <Sz= 1.00|   -0.000000    0.000000i     0.000002   -0.000005i     0.000000    0.000000i
 Total mean-field SOC matrix (cm-1): < B(S,Sz) | Hsomf | A(S',Sz') >
                     |Sz'=-1.00>              |Sz'= 0.00>              |Sz'= 1.00>
 <Sz=-1.00|   -0.000000    0.000000i     0.000003    0.000009i     0.000000    0.000000i
 <Sz= 0.00|   -0.000003    0.000009i    -0.000000   -0.000000i     0.000003    0.000009i
 <Sz= 1.00|    0.000000   -0.000000i    -0.000003    0.000009i    -0.000000   -0.000000i
Mean-Field SOCC =     0.000019083 cm-1
   
**************************************************
State A: Root  1
State B: Root  8
  
Angular momentum components
< B | Lx | A > =    -0.000000003i
< B | Ly | A > =     0.000000006i
< B | Lz | A > =    -0.000000000i
  
Norm of one-particle transition density matrix
||gamma^AB||_total       =  0.943070
||gamma^AB||_symmetrized =  0.670888
||gamma^AB||_anti-symm   =  0.662790
  
Spin-orbit couplings
 Using HF (reference) density for the 2-elec mean-field SOC contribution
KET: S',Sz' (Root   1) =  1.000 1.000
BRA: S ,Sz  (Root   8) =  1.000 1.000
Clebsh-Gordan coefficient: < 1.000, 1.000; 1.000, 0.000| 1.000, 1.000> =  0.707
 Reading 1e-SO integrals
 1e Reduced matrix elements (cm-1)
<S|| Hso(L-) ||S'> =     0.0000006660    -0.0000013522
<S|| Hso(L0) ||S'> =     0.0000000000    -0.0000000209
<S|| Hso(L+) ||S'> =     0.0000006660     0.0000013522
 1-elec SOC matrix (cm-1): < B(S,Sz) | Hso(1e) | A(S',Sz') >
                     |Sz'=-1.00>              |Sz'= 0.00>              |Sz'= 1.00>
 <Sz=-1.00|   -0.000000    0.000000i     0.000000    0.000001i     0.000000    0.000000i
 <Sz= 0.00|   -0.000000    0.000001i    -0.000000   -0.000000i     0.000000    0.000001i
 <Sz= 1.00|    0.000000   -0.000000i    -0.000000    0.000001i    -0.000000   -0.000000i
1-elec SOCC =     0.000002132 cm-1
 Reading 2e-SOMF integrals
 2e-SOMF Reduced matrix elements (cm-1)
<S|| Hso(L-) ||S'> =    -0.0000002456     0.0000004985
<S|| Hso(L0) ||S'> =     0.0000000000     0.0000000112
<S|| Hso(L+) ||S'> =    -0.0000002456    -0.0000004985
 2-elec mean-field SOC matrix (cm-1): < B(S,Sz) | Hso(2e-mf) | A(S',Sz') >
                     |Sz'=-1.00>              |Sz'= 0.00>              |Sz'= 1.00>
 <Sz=-1.00|    0.000000   -0.000000i    -0.000000   -0.000000i    -0.000000   -0.000000i
 <Sz= 0.00|    0.000000   -0.000000i     0.000000    0.000000i    -0.000000   -0.000000i
 <Sz= 1.00|   -0.000000    0.000000i     0.000000   -0.000000i     0.000000    0.000000i
 Total mean-field SOC matrix (cm-1): < B(S,Sz) | Hsomf | A(S',Sz') >
                     |Sz'=-1.00>              |Sz'= 0.00>              |Sz'= 1.00>
 <Sz=-1.00|   -0.000000    0.000000i     0.000000    0.000001i     0.000000    0.000000i
 <Sz= 0.00|   -0.000000    0.000001i    -0.000000   -0.000000i     0.000000    0.000001i
 <Sz= 1.00|    0.000000   -0.000000i    -0.000000    0.000001i    -0.000000   -0.000000i
Mean-Field SOCC =     0.000001346 cm-1
   
**************************************************
State A: Root  1
State B: Root  9
  
Angular momentum components
< B | Lx | A > =    -0.000000000i
< B | Ly | A > =     0.000000000i
< B | Lz | A > =     0.000000000i
  
Norm of one-particle transition density matrix
||gamma^AB||_total       =  0.943069
||gamma^AB||_symmetrized =  0.670888
||gamma^AB||_anti-symm   =  0.662789
  
Spin-orbit couplings
 Using HF (reference) density for the 2-elec mean-field SOC contribution
KET: S',Sz' (Root   1) =  1.000 1.000
BRA: S ,Sz  (Root   9) =  1.000 1.000
Clebsh-Gordan coefficient: < 1.000, 1.000; 1.000, 0.000| 1.000, 1.000> =  0.707
 Reading 1e-SO integrals
 1e Reduced matrix elements (cm-1)
<S|| Hso(L-) ||S'> =     0.0000000144    -0.0000000463
<S|| Hso(L0) ||S'> =     0.0000000000     0.0000003006
<S|| Hso(L+) ||S'> =     0.0000000144     0.0000000463
 1-elec SOC matrix (cm-1): < B(S,Sz) | Hso(1e) | A(S',Sz') >
                     |Sz'=-1.00>              |Sz'= 0.00>              |Sz'= 1.00>
 <Sz=-1.00|   -0.000000   -0.000000i     0.000000    0.000000i     0.000000    0.000000i
 <Sz= 0.00|   -0.000000    0.000000i    -0.000000   -0.000000i     0.000000    0.000000i
 <Sz= 1.00|    0.000000    0.000000i    -0.000000    0.000000i    -0.000000    0.000000i
1-elec SOCC =     0.000000308 cm-1
 Reading 2e-SOMF integrals
 2e-SOMF Reduced matrix elements (cm-1)
<S|| Hso(L-) ||S'> =    -0.0000000053     0.0000000171
<S|| Hso(L0) ||S'> =     0.0000000000    -0.0000001935
<S|| Hso(L+) ||S'> =    -0.0000000053    -0.0000000171
 2-elec mean-field SOC matrix (cm-1): < B(S,Sz) | Hso(2e-mf) | A(S',Sz') >
                     |Sz'=-1.00>              |Sz'= 0.00>              |Sz'= 1.00>
 <Sz=-1.00|    0.000000    0.000000i    -0.000000   -0.000000i    -0.000000   -0.000000i
 <Sz= 0.00|    0.000000   -0.000000i     0.000000    0.000000i    -0.000000   -0.000000i
 <Sz= 1.00|   -0.000000   -0.000000i     0.000000   -0.000000i     0.000000   -0.000000i
 Total mean-field SOC matrix (cm-1): < B(S,Sz) | Hsomf | A(S',Sz') >
                     |Sz'=-1.00>              |Sz'= 0.00>              |Sz'= 1.00>
 <Sz=-1.00|   -0.000000   -0.000000i     0.000000    0.000000i     0.000000    0.000000i
 <Sz= 0.00|   -0.000000    0.000000i    -0.000000   -0.000000i     0.000000    0.000000i
 <Sz= 1.00|    0.000000    0.000000i    -0.000000    0.000000i    -0.000000    0.000000i
Mean-Field SOCC =     0.000000116 cm-1
   
**************************************************
State A: Root  1
State B: Root 10
  
Angular momentum components
< B | Lx | A > =    -0.000000000i
< B | Ly | A > =    -0.000000000i
< B | Lz | A > =     0.000000000i
  
Norm of one-particle transition density matrix
||gamma^AB||_total       =  0.522723
||gamma^AB||_symmetrized =  0.367182
||gamma^AB||_anti-symm   =  0.372044
  
Spin-orbit couplings
 Using HF (reference) density for the 2-elec mean-field SOC contribution
KET: S',Sz' (Root   1) =  1.000 1.000
BRA: S ,Sz  (Root  10) =  1.000 1.000
Clebsh-Gordan coefficient: < 1.000, 1.000; 1.000, 0.000| 1.000, 1.000> =  0.707
 Reading 1e-SO integrals
 1e Reduced matrix elements (cm-1)
<S|| Hso(L-) ||S'> =     0.0000000095    -0.0000000114
<S|| Hso(L0) ||S'> =     0.0000000000     0.0000003294
<S|| Hso(L+) ||S'> =     0.0000000095     0.0000000114
 1-elec SOC matrix (cm-1): < B(S,Sz) | Hso(1e) | A(S',Sz') >
                     |Sz'=-1.00>              |Sz'= 0.00>              |Sz'= 1.00>
 <Sz=-1.00|   -0.000000   -0.000000i     0.000000    0.000000i     0.000000    0.000000i
 <Sz= 0.00|   -0.000000    0.000000i    -0.000000    0.000000i     0.000000    0.000000i
 <Sz= 1.00|    0.000000    0.000000i    -0.000000    0.000000i    -0.000000    0.000000i
1-elec SOCC =     0.000000330 cm-1
 Reading 2e-SOMF integrals
 2e-SOMF Reduced matrix elements (cm-1)
<S|| Hso(L-) ||S'> =    -0.0000000038     0.0000000049
<S|| Hso(L0) ||S'> =     0.0000000000    -0.0000001058
<S|| Hso(L+) ||S'> =    -0.0000000038    -0.0000000049
 2-elec mean-field SOC matrix (cm-1): < B(S,Sz) | Hso(2e-mf) | A(S',Sz') >
                     |Sz'=-1.00>              |Sz'= 0.00>              |Sz'= 1.00>
 <Sz=-1.00|    0.000000    0.000000i    -0.000000   -0.000000i    -0.000000   -0.000000i
 <Sz= 0.00|    0.000000   -0.000000i     0.000000    0.000000i    -0.000000   -0.000000i
 <Sz= 1.00|   -0.000000   -0.000000i     0.000000   -0.000000i     0.000000   -0.000000i
 Total mean-field SOC matrix (cm-1): < B(S,Sz) | Hsomf | A(S',Sz') >
                     |Sz'=-1.00>              |Sz'= 0.00>              |Sz'= 1.00>
 <Sz=-1.00|   -0.000000   -0.000000i     0.000000    0.000000i     0.000000    0.000000i
 <Sz= 0.00|   -0.000000    0.000000i    -0.000000    0.000000i     0.000000    0.000000i
 <Sz= 1.00|    0.000000    0.000000i    -0.000000    0.000000i    -0.000000    0.000000i
Mean-Field SOCC =     0.000000224 cm-1
   
**************************************************
State A: Root  2
State B: Root  1
  
Angular momentum components
< B | Lx | A > =    -0.000000088i
< B | Ly | A > =     0.000000135i
< B | Lz | A > =     0.000000000i
  
Norm of one-particle transition density matrix
||gamma^AB||_total       =  0.983877
||gamma^AB||_symmetrized =  0.806510
||gamma^AB||_anti-symm   =  0.563520
  
Spin-orbit couplings
 Using HF (reference) density for the 2-elec mean-field SOC contribution
KET: S',Sz' (Root   2) =  1.000 1.000
BRA: S ,Sz  (Root   1) =  1.000 1.000
Clebsh-Gordan coefficient: < 1.000, 1.000; 1.000, 0.000| 1.000, 1.000> =  0.707
 Reading 1e-SO integrals
 1e Reduced matrix elements (cm-1)
<S|| Hso(L-) ||S'> =     0.0000126986    -0.0000083103
<S|| Hso(L0) ||S'> =     0.0000000000    -0.0000000000
<S|| Hso(L+) ||S'> =     0.0000126986     0.0000083103
 1-elec SOC matrix (cm-1): < B(S,Sz) | Hso(1e) | A(S',Sz') >
                     |Sz'=-1.00>              |Sz'= 0.00>              |Sz'= 1.00>
 <Sz=-1.00|   -0.000000    0.000000i     0.000009    0.000006i     0.000000    0.000000i
 <Sz= 0.00|   -0.000009    0.000006i    -0.000000   -0.000000i     0.000009    0.000006i
 <Sz= 1.00|    0.000000   -0.000000i    -0.000009    0.000006i    -0.000000   -0.000000i
1-elec SOCC =     0.000021462 cm-1
 Reading 2e-SOMF integrals
 2e-SOMF Reduced matrix elements (cm-1)
<S|| Hso(L-) ||S'> =    -0.0000047477     0.0000031071
<S|| Hso(L0) ||S'> =     0.0000000000     0.0000000000
<S|| Hso(L+) ||S'> =    -0.0000047477    -0.0000031071
 2-elec mean-field SOC matrix (cm-1): < B(S,Sz) | Hso(2e-mf) | A(S',Sz') >
                     |Sz'=-1.00>              |Sz'= 0.00>              |Sz'= 1.00>
 <Sz=-1.00|    0.000000   -0.000000i    -0.000003   -0.000002i    -0.000000   -0.000000i
 <Sz= 0.00|    0.000003   -0.000002i     0.000000    0.000000i    -0.000003   -0.000002i
 <Sz= 1.00|   -0.000000    0.000000i     0.000003   -0.000002i     0.000000    0.000000i
 Total mean-field SOC matrix (cm-1): < B(S,Sz) | Hsomf | A(S',Sz') >
                     |Sz'=-1.00>              |Sz'= 0.00>              |Sz'= 1.00>
 <Sz=-1.00|   -0.000000    0.000000i     0.000006    0.000004i     0.000000    0.000000i
 <Sz= 0.00|   -0.000006    0.000004i    -0.000000   -0.000000i     0.000006    0.000004i
 <Sz= 1.00|    0.000000   -0.000000i    -0.000006    0.000004i    -0.000000   -0.000000i
Mean-Field SOCC =     0.000013438 cm-1
   
**************************************************
State A: Root  2
State B: Root  3
  
Angular momentum components
< B | Lx | A > =     0.000000000i
< B | Ly | A > =     0.000000000i
< B | Lz | A > =     2.000000000i
  
Norm of one-particle transition density matrix
||gamma^AB||_total       =  0.997495
||gamma^AB||_symmetrized =  0.000000
||gamma^AB||_anti-symm   =  0.997495
  
Spin-orbit couplings
 Using HF (reference) density for the 2-elec mean-field SOC contribution
KET: S',Sz' (Root   2) =  1.000 1.000
BRA: S ,Sz  (Root   3) =  1.000 1.000
Clebsh-Gordan coefficient: < 1.000, 1.000; 1.000, 0.000| 1.000, 1.000> =  0.707
 Reading 1e-SO integrals
 1e Reduced matrix elements (cm-1)
<S|| Hso(L-) ||S'> =     0.0000000022     0.0000000022
<S|| Hso(L0) ||S'> =     0.0000000000  -241.9984172929
<S|| Hso(L+) ||S'> =     0.0000000022    -0.0000000022
 1-elec SOC matrix (cm-1): < B(S,Sz) | Hso(1e) | A(S',Sz') >
                     |Sz'=-1.00>              |Sz'= 0.00>              |Sz'= 1.00>
 <Sz=-1.00|   -0.000000  171.118722i     0.000000   -0.000000i     0.000000   -0.000000i
 <Sz= 0.00|   -0.000000   -0.000000i    -0.000000   -0.000000i     0.000000   -0.000000i
 <Sz= 1.00|    0.000000   -0.000000i    -0.000000   -0.000000i    -0.000000 -171.118722i
1-elec SOCC =   241.998417293 cm-1
 Reading 2e-SOMF integrals
 2e-SOMF Reduced matrix elements (cm-1)
<S|| Hso(L-) ||S'> =    -0.0000000008    -0.0000000008
<S|| Hso(L0) ||S'> =     0.0000000000    96.0227935470
<S|| Hso(L+) ||S'> =    -0.0000000008     0.0000000008
 2-elec mean-field SOC matrix (cm-1): < B(S,Sz) | Hso(2e-mf) | A(S',Sz') >
                     |Sz'=-1.00>              |Sz'= 0.00>              |Sz'= 1.00>
 <Sz=-1.00|    0.000000  -67.898368i    -0.000000    0.000000i    -0.000000    0.000000i
 <Sz= 0.00|    0.000000    0.000000i     0.000000    0.000000i    -0.000000    0.000000i
 <Sz= 1.00|   -0.000000    0.000000i     0.000000    0.000000i     0.000000   67.898368i
 Total mean-field SOC matrix (cm-1): < B(S,Sz) | Hsomf | A(S',Sz') >
                     |Sz'=-1.00>              |Sz'= 0.00>              |Sz'= 1.00>
 <Sz=-1.00|   -0.000000  103.220353i     0.000000   -0.000000i     0.000000   -0.000000i
 <Sz= 0.00|   -0.000000   -0.000000i    -0.000000   -0.000000i     0.000000   -0.000000i
 <Sz= 1.00|    0.000000   -0.000000i    -0.000000   -0.000000i    -0.000000 -103.220353i
Mean-Field SOCC =   145.975623746 cm-1
   
**************************************************
State A: Root  2
State B: Root  4
  
Angular momentum components
< B | Lx | A > =     0.000000001i
< B | Ly | A > =    -0.000000001i
< B | Lz | A > =     0.000000000i
  
Norm of one-particle transition density matrix
||gamma^AB||_total       =  0.997227
||gamma^AB||_symmetrized =  0.997227
||gamma^AB||_anti-symm   =  0.000000
  
Spin-orbit couplings
 Using HF (reference) density for the 2-elec mean-field SOC contribution
KET: S',Sz' (Root   2) =  1.000 1.000
BRA: S ,Sz  (Root   4) =  1.000 1.000
Clebsh-Gordan coefficient: < 1.000, 1.000; 1.000, 0.000| 1.000, 1.000> =  0.707
 Reading 1e-SO integrals
 1e Reduced matrix elements (cm-1)
<S|| Hso(L-) ||S'> =    -0.0000000251     0.0000000182
<S|| Hso(L0) ||S'> =     0.0000000000    -0.0000000002
<S|| Hso(L+) ||S'> =    -0.0000000251    -0.0000000182
 1-elec SOC matrix (cm-1): < B(S,Sz) | Hso(1e) | A(S',Sz') >
                     |Sz'=-1.00>              |Sz'= 0.00>              |Sz'= 1.00>
 <Sz=-1.00|    0.000000    0.000000i    -0.000000   -0.000000i    -0.000000   -0.000000i
 <Sz= 0.00|    0.000000   -0.000000i     0.000000    0.000000i    -0.000000   -0.000000i
 <Sz= 1.00|   -0.000000    0.000000i     0.000000   -0.000000i     0.000000   -0.000000i
1-elec SOCC =     0.000000044 cm-1
 Reading 2e-SOMF integrals
 2e-SOMF Reduced matrix elements (cm-1)
<S|| Hso(L-) ||S'> =     0.0000000090    -0.0000000065
<S|| Hso(L0) ||S'> =     0.0000000000     0.0000000001
<S|| Hso(L+) ||S'> =     0.0000000090     0.0000000065
 2-elec mean-field SOC matrix (cm-1): < B(S,Sz) | Hso(2e-mf) | A(S',Sz') >
                     |Sz'=-1.00>              |Sz'= 0.00>              |Sz'= 1.00>
 <Sz=-1.00|   -0.000000   -0.000000i     0.000000    0.000000i     0.000000    0.000000i
 <Sz= 0.00|   -0.000000    0.000000i    -0.000000   -0.000000i     0.000000    0.000000i
 <Sz= 1.00|    0.000000   -0.000000i    -0.000000    0.000000i    -0.000000    0.000000i
 Total mean-field SOC matrix (cm-1): < B(S,Sz) | Hsomf | A(S',Sz') >
                     |Sz'=-1.00>              |Sz'= 0.00>              |Sz'= 1.00>
 <Sz=-1.00|    0.000000    0.000000i    -0.000000   -0.000000i    -0.000000   -0.000000i
 <Sz= 0.00|    0.000000   -0.000000i     0.000000    0.000000i    -0.000000   -0.000000i
 <Sz= 1.00|   -0.000000    0.000000i     0.000000   -0.000000i     0.000000   -0.000000i
Mean-Field SOCC =     0.000000028 cm-1
   
**************************************************
State A: Root  2
State B: Root  5
  
Angular momentum components
< B | Lx | A > =     0.000000002i
< B | Ly | A > =    -0.000000003i
< B | Lz | A > =     0.000000000i
  
Norm of one-particle transition density matrix
||gamma^AB||_total       =  0.693255
||gamma^AB||_symmetrized =  0.490660
||gamma^AB||_anti-symm   =  0.489751
  
Spin-orbit couplings
 Using HF (reference) density for the 2-elec mean-field SOC contribution
KET: S',Sz' (Root   2) =  1.000 1.000
BRA: S ,Sz  (Root   5) =  1.000 1.000
Clebsh-Gordan coefficient: < 1.000, 1.000; 1.000, 0.000| 1.000, 1.000> =  0.707
 Reading 1e-SO integrals
 1e Reduced matrix elements (cm-1)
<S|| Hso(L-) ||S'> =    -0.0000001114     0.0000000816
<S|| Hso(L0) ||S'> =     0.0000000000    -0.0000000000
<S|| Hso(L+) ||S'> =    -0.0000001114    -0.0000000816
 1-elec SOC matrix (cm-1): < B(S,Sz) | Hso(1e) | A(S',Sz') >
                     |Sz'=-1.00>              |Sz'= 0.00>              |Sz'= 1.00>
 <Sz=-1.00|    0.000000    0.000000i    -0.000000   -0.000000i    -0.000000   -0.000000i
 <Sz= 0.00|    0.000000   -0.000000i     0.000000    0.000000i    -0.000000   -0.000000i
 <Sz= 1.00|   -0.000000    0.000000i     0.000000   -0.000000i     0.000000   -0.000000i
1-elec SOCC =     0.000000195 cm-1
 Reading 2e-SOMF integrals
 2e-SOMF Reduced matrix elements (cm-1)
<S|| Hso(L-) ||S'> =     0.0000000407    -0.0000000299
<S|| Hso(L0) ||S'> =     0.0000000000     0.0000000000
<S|| Hso(L+) ||S'> =     0.0000000407     0.0000000299
 2-elec mean-field SOC matrix (cm-1): < B(S,Sz) | Hso(2e-mf) | A(S',Sz') >
                     |Sz'=-1.00>              |Sz'= 0.00>              |Sz'= 1.00>
 <Sz=-1.00|   -0.000000   -0.000000i     0.000000    0.000000i     0.000000    0.000000i
 <Sz= 0.00|   -0.000000    0.000000i    -0.000000   -0.000000i     0.000000    0.000000i
 <Sz= 1.00|    0.000000   -0.000000i    -0.000000    0.000000i    -0.000000    0.000000i
 Total mean-field SOC matrix (cm-1): < B(S,Sz) | Hsomf | A(S',Sz') >
                     |Sz'=-1.00>              |Sz'= 0.00>              |Sz'= 1.00>
 <Sz=-1.00|    0.000000    0.000000i    -0.000000   -0.000000i    -0.000000   -0.000000i
 <Sz= 0.00|    0.000000   -0.000000i     0.000000    0.000000i    -0.000000   -0.000000i
 <Sz= 1.00|   -0.000000    0.000000i     0.000000   -0.000000i     0.000000   -0.000000i
Mean-Field SOCC =     0.000000124 cm-1
   
**************************************************
State A: Root  2
State B: Root  6
  
Angular momentum components
< B | Lx | A > =    -0.000000002i
< B | Ly | A > =     0.000000003i
< B | Lz | A > =    -0.000000000i
  
Norm of one-particle transition density matrix
||gamma^AB||_total       =  0.693255
||gamma^AB||_symmetrized =  0.490660
||gamma^AB||_anti-symm   =  0.489751
  
Spin-orbit couplings
 Using HF (reference) density for the 2-elec mean-field SOC contribution
KET: S',Sz' (Root   2) =  1.000 1.000
BRA: S ,Sz  (Root   6) =  1.000 1.000
Clebsh-Gordan coefficient: < 1.000, 1.000; 1.000, 0.000| 1.000, 1.000> =  0.707
 Reading 1e-SO integrals
 1e Reduced matrix elements (cm-1)
<S|| Hso(L-) ||S'> =     0.0000001685    -0.0000001109
<S|| Hso(L0) ||S'> =     0.0000000000     0.0000000000
<S|| Hso(L+) ||S'> =     0.0000001685     0.0000001109
 1-elec SOC matrix (cm-1): < B(S,Sz) | Hso(1e) | A(S',Sz') >
                     |Sz'=-1.00>              |Sz'= 0.00>              |Sz'= 1.00>
 <Sz=-1.00|   -0.000000   -0.000000i     0.000000    0.000000i     0.000000    0.000000i
 <Sz= 0.00|   -0.000000    0.000000i    -0.000000   -0.000000i     0.000000    0.000000i
 <Sz= 1.00|    0.000000   -0.000000i    -0.000000    0.000000i    -0.000000    0.000000i
1-elec SOCC =     0.000000285 cm-1
 Reading 2e-SOMF integrals
 2e-SOMF Reduced matrix elements (cm-1)
<S|| Hso(L-) ||S'> =    -0.0000000623     0.0000000410
<S|| Hso(L0) ||S'> =     0.0000000000    -0.0000000000
<S|| Hso(L+) ||S'> =    -0.0000000623    -0.0000000410
 2-elec mean-field SOC matrix (cm-1): < B(S,Sz) | Hso(2e-mf) | A(S',Sz') >
                     |Sz'=-1.00>              |Sz'= 0.00>              |Sz'= 1.00>
 <Sz=-1.00|    0.000000    0.000000i    -0.000000   -0.000000i    -0.000000   -0.000000i
 <Sz= 0.00|    0.000000   -0.000000i     0.000000    0.000000i    -0.000000   -0.000000i
 <Sz= 1.00|   -0.000000    0.000000i     0.000000   -0.000000i     0.000000   -0.000000i
 Total mean-field SOC matrix (cm-1): < B(S,Sz) | Hsomf | A(S',Sz') >
                     |Sz'=-1.00>              |Sz'= 0.00>              |Sz'= 1.00>
 <Sz=-1.00|   -0.000000   -0.000000i     0.000000    0.000000i     0.000000    0.000000i
 <Sz= 0.00|   -0.000000    0.000000i    -0.000000   -0.000000i     0.000000    0.000000i
 <Sz= 1.00|    0.000000   -0.000000i    -0.000000    0.000000i    -0.000000    0.000000i
Mean-Field SOCC =     0.000000180 cm-1
   
**************************************************
State A: Root  2
State B: Root  7
  
Angular momentum components
< B | Lx | A > =    -0.000000000i
< B | Ly | A > =     0.000000000i
< B | Lz | A > =     0.000000000i
  
Norm of one-particle transition density matrix
||gamma^AB||_total       =  0.895019
||gamma^AB||_symmetrized =  0.895019
||gamma^AB||_anti-symm   =  0.000000
  
Spin-orbit couplings
 Using HF (reference) density for the 2-elec mean-field SOC contribution
KET: S',Sz' (Root   2) =  1.000 1.000
BRA: S ,Sz  (Root   7) =  1.000 1.000
Clebsh-Gordan coefficient: < 1.000, 1.000; 1.000, 0.000| 1.000, 1.000> =  0.707
 Reading 1e-SO integrals
 1e Reduced matrix elements (cm-1)
<S|| Hso(L-) ||S'> =     0.0000000016    -0.0000000058
<S|| Hso(L0) ||S'> =     0.0000000000    -0.0000000000
<S|| Hso(L+) ||S'> =     0.0000000016     0.0000000058
 1-elec SOC matrix (cm-1): < B(S,Sz) | Hso(1e) | A(S',Sz') >
                     |Sz'=-1.00>              |Sz'= 0.00>              |Sz'= 1.00>
 <Sz=-1.00|   -0.000000    0.000000i     0.000000    0.000000i     0.000000    0.000000i
 <Sz= 0.00|   -0.000000    0.000000i    -0.000000   -0.000000i     0.000000    0.000000i
 <Sz= 1.00|    0.000000   -0.000000i    -0.000000    0.000000i    -0.000000   -0.000000i
1-elec SOCC =     0.000000008 cm-1
 Reading 2e-SOMF integrals
 2e-SOMF Reduced matrix elements (cm-1)
<S|| Hso(L-) ||S'> =    -0.0000000006     0.0000000021
<S|| Hso(L0) ||S'> =     0.0000000000     0.0000000000
<S|| Hso(L+) ||S'> =    -0.0000000006    -0.0000000021
 2-elec mean-field SOC matrix (cm-1): < B(S,Sz) | Hso(2e-mf) | A(S',Sz') >
                     |Sz'=-1.00>              |Sz'= 0.00>              |Sz'= 1.00>
 <Sz=-1.00|    0.000000   -0.000000i    -0.000000   -0.000000i    -0.000000   -0.000000i
 <Sz= 0.00|    0.000000   -0.000000i     0.000000    0.000000i    -0.000000   -0.000000i
 <Sz= 1.00|   -0.000000    0.000000i     0.000000   -0.000000i     0.000000    0.000000i
 Total mean-field SOC matrix (cm-1): < B(S,Sz) | Hsomf | A(S',Sz') >
                     |Sz'=-1.00>              |Sz'= 0.00>              |Sz'= 1.00>
 <Sz=-1.00|   -0.000000    0.000000i     0.000000    0.000000i     0.000000    0.000000i
 <Sz= 0.00|   -0.000000    0.000000i    -0.000000   -0.000000i     0.000000    0.000000i
 <Sz= 1.00|    0.000000   -0.000000i    -0.000000    0.000000i    -0.000000   -0.000000i
Mean-Field SOCC =     0.000000005 cm-1
   
**************************************************
State A: Root  2
State B: Root  8
  
Angular momentum components
< B | Lx | A > =     0.106680586i
< B | Ly | A > =    -0.149987510i
< B | Lz | A > =    -0.000000000i
  
Norm of one-particle transition density matrix
||gamma^AB||_total       =  0.109213
||gamma^AB||_symmetrized =  0.072329
||gamma^AB||_anti-symm   =  0.081829
  
Spin-orbit couplings
 Using HF (reference) density for the 2-elec mean-field SOC contribution
KET: S',Sz' (Root   2) =  1.000 1.000
BRA: S ,Sz  (Root   8) =  1.000 1.000
Clebsh-Gordan coefficient: < 1.000, 1.000; 1.000, 0.000| 1.000, 1.000> =  0.707
 Reading 1e-SO integrals
 1e Reduced matrix elements (cm-1)
<S|| Hso(L-) ||S'> =    -3.6067558910     2.5653420099
<S|| Hso(L0) ||S'> =     0.0000000000    -0.0000000003
<S|| Hso(L+) ||S'> =    -3.6067558910    -2.5653420099
 1-elec SOC matrix (cm-1): < B(S,Sz) | Hso(1e) | A(S',Sz') >
                     |Sz'=-1.00>              |Sz'= 0.00>              |Sz'= 1.00>
 <Sz=-1.00|    0.000000    0.000000i    -2.550362   -1.813971i    -0.000000   -0.000000i
 <Sz= 0.00|    2.550362   -1.813971i     0.000000    0.000000i    -2.550362   -1.813971i
 <Sz= 1.00|   -0.000000    0.000000i     2.550362   -1.813971i     0.000000   -0.000000i
1-elec SOCC =     6.259339851 cm-1
 Reading 2e-SOMF integrals
 2e-SOMF Reduced matrix elements (cm-1)
<S|| Hso(L-) ||S'> =     1.5864970863    -1.1284138052
<S|| Hso(L0) ||S'> =     0.0000000000     0.0000000001
<S|| Hso(L+) ||S'> =     1.5864970863     1.1284138052
 2-elec mean-field SOC matrix (cm-1): < B(S,Sz) | Hso(2e-mf) | A(S',Sz') >
                     |Sz'=-1.00>              |Sz'= 0.00>              |Sz'= 1.00>
 <Sz=-1.00|   -0.000000   -0.000000i     1.121823    0.797909i     0.000000    0.000000i
[...]
 <Sz= 1.00|    0.000000    0.000000i   -28.501856  -10.522363i    -0.000000    0.000000i
1-elec SOCC =    60.764327979 cm-1
 Reading 2e-SOMF integrals
 2e-SOMF Reduced matrix elements (cm-1)
<S|| Hso(L-) ||S'> =   -15.5647182949    -5.7462088566
<S|| Hso(L0) ||S'> =     0.0000000000    -0.0000000002
<S|| Hso(L+) ||S'> =   -15.5647182949     5.7462088566
 2-elec mean-field SOC matrix (cm-1): < B(S,Sz) | Hso(2e-mf) | A(S',Sz') >
                     |Sz'=-1.00>              |Sz'= 0.00>              |Sz'= 1.00>
 <Sz=-1.00|    0.000000    0.000000i   -11.005918    4.063183i    -0.000000    0.000000i
 <Sz= 0.00|   11.005918    4.063183i     0.000000   -0.000000i   -11.005918    4.063183i
 <Sz= 1.00|   -0.000000   -0.000000i    11.005918    4.063183i     0.000000   -0.000000i
 Total mean-field SOC matrix (cm-1): < B(S,Sz) | Hsomf | A(S',Sz') >
                     |Sz'=-1.00>              |Sz'= 0.00>              |Sz'= 1.00>
 <Sz=-1.00|   -0.000000   -0.000000i    17.495938   -6.459180i     0.000000   -0.000000i
 <Sz= 0.00|  -17.495938   -6.459180i    -0.000000    0.000000i    17.495938   -6.459180i
 <Sz= 1.00|    0.000000    0.000000i   -17.495938   -6.459180i    -0.000000    0.000000i
Mean-Field SOCC =    37.300339749 cm-1
   
**************************************************
State A: Root 10
State B: Root  8
  
Angular momentum components
< B | Lx | A > =    -0.000000006i
< B | Ly | A > =     0.000000002i
< B | Lz | A > =     0.000000001i
  
Norm of one-particle transition density matrix
||gamma^AB||_total       =  0.105190
||gamma^AB||_symmetrized =  0.074624
||gamma^AB||_anti-symm   =  0.074136
  
Spin-orbit couplings
 Using HF (reference) density for the 2-elec mean-field SOC contribution
KET: S',Sz' (Root  10) =  1.000 1.000
BRA: S ,Sz  (Root   8) =  1.000 1.000
Clebsh-Gordan coefficient: < 1.000, 1.000; 1.000, 0.000| 1.000, 1.000> =  0.707
 Reading 1e-SO integrals
 1e Reduced matrix elements (cm-1)
<S|| Hso(L-) ||S'> =     0.0000000441    -0.0000001355
<S|| Hso(L0) ||S'> =     0.0000000000    23.1742250895
<S|| Hso(L+) ||S'> =     0.0000000441     0.0000001355
 1-elec SOC matrix (cm-1): < B(S,Sz) | Hso(1e) | A(S',Sz') >
                     |Sz'=-1.00>              |Sz'= 0.00>              |Sz'= 1.00>
 <Sz=-1.00|   -0.000000  -16.386652i     0.000000    0.000000i     0.000000    0.000000i
 <Sz= 0.00|   -0.000000    0.000000i    -0.000000    0.000000i     0.000000    0.000000i
 <Sz= 1.00|    0.000000    0.000000i    -0.000000    0.000000i    -0.000000   16.386652i
1-elec SOCC =    23.174225090 cm-1
 Reading 2e-SOMF integrals
 2e-SOMF Reduced matrix elements (cm-1)
<S|| Hso(L-) ||S'> =    -0.0000000197     0.0000000597
<S|| Hso(L0) ||S'> =     0.0000000000    -9.1142440797
<S|| Hso(L+) ||S'> =    -0.0000000197    -0.0000000597
 2-elec mean-field SOC matrix (cm-1): < B(S,Sz) | Hso(2e-mf) | A(S',Sz') >
                     |Sz'=-1.00>              |Sz'= 0.00>              |Sz'= 1.00>
 <Sz=-1.00|    0.000000    6.444744i    -0.000000   -0.000000i    -0.000000   -0.000000i
 <Sz= 0.00|    0.000000   -0.000000i     0.000000   -0.000000i    -0.000000   -0.000000i
 <Sz= 1.00|   -0.000000   -0.000000i     0.000000   -0.000000i     0.000000   -6.444744i
 Total mean-field SOC matrix (cm-1): < B(S,Sz) | Hsomf | A(S',Sz') >
                     |Sz'=-1.00>              |Sz'= 0.00>              |Sz'= 1.00>
 <Sz=-1.00|   -0.000000   -9.941908i     0.000000    0.000000i     0.000000    0.000000i
 <Sz= 0.00|   -0.000000    0.000000i    -0.000000    0.000000i     0.000000    0.000000i
 <Sz= 1.00|    0.000000    0.000000i    -0.000000    0.000000i    -0.000000    9.941908i
Mean-Field SOCC =    14.059981010 cm-1
   
**************************************************
State A: Root 10
State B: Root  9
  
Angular momentum components
< B | Lx | A > =     0.000000000i
< B | Ly | A > =    -0.000000000i
< B | Lz | A > =    -0.000000000i
  
Norm of one-particle transition density matrix
||gamma^AB||_total       =  0.172716
||gamma^AB||_symmetrized =  0.170483
||gamma^AB||_anti-symm   =  0.027686
  
Spin-orbit couplings
 Using HF (reference) density for the 2-elec mean-field SOC contribution
KET: S',Sz' (Root  10) =  1.000 1.000
BRA: S ,Sz  (Root   9) =  1.000 1.000
Clebsh-Gordan coefficient: < 1.000, 1.000; 1.000, 0.000| 1.000, 1.000> =  0.707
 Reading 1e-SO integrals
 1e Reduced matrix elements (cm-1)
<S|| Hso(L-) ||S'> =    -0.0000000085     0.0000000165
<S|| Hso(L0) ||S'> =     0.0000000000     1.0424687189
<S|| Hso(L+) ||S'> =    -0.0000000085    -0.0000000165
 1-elec SOC matrix (cm-1): < B(S,Sz) | Hso(1e) | A(S',Sz') >
                     |Sz'=-1.00>              |Sz'= 0.00>              |Sz'= 1.00>
 <Sz=-1.00|    0.000000   -0.737137i    -0.000000   -0.000000i    -0.000000    0.000000i
 <Sz= 0.00|    0.000000   -0.000000i     0.000000    0.000000i    -0.000000   -0.000000i
 <Sz= 1.00|   -0.000000    0.000000i     0.000000   -0.000000i     0.000000    0.737137i
1-elec SOCC =     1.042468719 cm-1
 Reading 2e-SOMF integrals
 2e-SOMF Reduced matrix elements (cm-1)
<S|| Hso(L-) ||S'> =     0.0000000034    -0.0000000068
<S|| Hso(L0) ||S'> =     0.0000000000    -0.4099949590
<S|| Hso(L+) ||S'> =     0.0000000034     0.0000000068
 2-elec mean-field SOC matrix (cm-1): < B(S,Sz) | Hso(2e-mf) | A(S',Sz') >
                     |Sz'=-1.00>              |Sz'= 0.00>              |Sz'= 1.00>
 <Sz=-1.00|   -0.000000    0.289910i     0.000000    0.000000i     0.000000   -0.000000i
 <Sz= 0.00|   -0.000000    0.000000i    -0.000000   -0.000000i     0.000000    0.000000i
 <Sz= 1.00|    0.000000   -0.000000i    -0.000000    0.000000i    -0.000000   -0.289910i
 Total mean-field SOC matrix (cm-1): < B(S,Sz) | Hsomf | A(S',Sz') >
                     |Sz'=-1.00>              |Sz'= 0.00>              |Sz'= 1.00>
 <Sz=-1.00|    0.000000   -0.447226i    -0.000000   -0.000000i    -0.000000    0.000000i
 <Sz= 0.00|    0.000000   -0.000000i     0.000000    0.000000i    -0.000000   -0.000000i
 <Sz= 1.00|   -0.000000    0.000000i     0.000000   -0.000000i     0.000000    0.447226i
Mean-Field SOCC =     0.632473760 cm-1
   
**************************************************
RAS-CI timing summary (seconds)
  CPU time         16.95s
  System time       0.00s
  Wall time        45.44s
Detailed CPU timing summary
     Fock matrix         :         0.0052 s
     Integrals           :         0.0094 s
     Addressing matrices :         0.0002 s
     Guesses             :         0.0006 s
     Iterations          :        16.6219 s
     Properties          :         0.3091 s
     RAS-CI(2) correction:         0.0000 s
  
 
 --------------------------------------------------------------
             Orbital Energies (a.u.) and Symmetries
 --------------------------------------------------------------
 
 Alpha MOs, Restricted
 -- Doubly Occupied --           
-20.441 -20.439  -1.615  -1.090  -0.618  -0.715  -0.715
  1 B1u   1 Ag    2 Ag    2 B1u   3 Ag    1 B3u   1 B2u                        
 -- Singly Occupied (Occupied) --
 -0.411  -0.411
  1 B2g   1 B3g                                                                
 -- Virtual --                   
  0.694
  3 B1u                                                                        
 
 Beta MOs, Restricted
 -- Doubly Occupied --           
-20.410 -20.410  -1.494  -0.896  -0.547  -0.446  -0.446
  1 B1u   1 Ag    2 Ag    2 B1u   3 Ag    1 B3u   1 B2u                        
 -- Singly Occupied (Vacant) --  
  0.270   0.270
  1 B2g   1 B3g                                                                
 -- Virtual --                   
  0.775
  3 B1u                                                                        
 --------------------------------------------------------------
 

                        RESTRICTED (RHF) MOLECULAR ORBITAL COEFFICIENTS
                         1         2         3         4         5         6
 eigenvalues:        -20.441   -20.439    -1.615    -1.090    -0.618    -0.715
   1  O 1   s        0.70303   0.70372  -0.16838   0.18497   0.06709  -0.00000
   2  O 1   s        0.01942   0.01251   0.57097  -0.77626  -0.33557   0.00000
   3  O 1   px      -0.00000  -0.00000  -0.00000   0.00000   0.00000   0.65868
   4  O 1   py      -0.00000   0.00000  -0.00000   0.00000  -0.00000   0.00000
   5  O 1   pz       0.00570   0.00015   0.17713   0.15826   0.61352  -0.00000
   6  O 2   s       -0.70303   0.70372  -0.16838  -0.18497   0.06709  -0.00000
   7  O 2   s       -0.01942   0.01251   0.57097   0.77626  -0.33557   0.00000
   8  O 2   px      -0.00000  -0.00000  -0.00000  -0.00000   0.00000   0.65868
   9  O 2   py      -0.00000   0.00000  -0.00000   0.00000  -0.00000   0.00000
  10  O 2   pz       0.00570  -0.00015  -0.17713   0.15826  -0.61352   0.00000
                         7         8         9        10
 eigenvalues:         -0.715    -0.411    -0.411     0.694
   1  O 1   s       -0.00000  -0.00000  -0.00000  -0.09450
   2  O 1   s        0.00000   0.00000   0.00000   0.58264
   3  O 1   px       0.00000   0.76807  -0.00000  -0.00000
   4  O 1   py      -0.65868  -0.00000  -0.76807  -0.00000
   5  O 1   pz      -0.00000  -0.00000   0.00000   0.94498
   6  O 2   s       -0.00000   0.00000  -0.00000   0.09450
   7  O 2   s        0.00000  -0.00000  -0.00000  -0.58264
   8  O 2   px       0.00000  -0.76807   0.00000  -0.00000
   9  O 2   py      -0.65868   0.00000   0.76807   0.00000
  10  O 2   pz       0.00000   0.00000  -0.00000   0.94498
 

======= MOLECULAR ORBITALS IN MOLDEN FORMAT =======
[Molden Format]
[Atoms] (Angs)
  O      1    8      0.00000000      0.00000000     -0.60376000
  O      2    8      0.00000000      0.00000000      0.60376000
[GTO]
1    0
S    3    1.000000
   1.30709320E+02    1.54328970E-01 
   2.38088610E+01    5.35328140E-01 
   6.44360830E+00    4.44634540E-01 
SP   3    1.000000
   5.03315130E+00   -9.99672300E-02   1.55916270E-01 
   1.16959610E+00    3.99512830E-01   6.07683720E-01 
   3.80389000E-01    7.00115470E-01   3.91957390E-01 

2    0
S    3    1.000000
   1.30709320E+02    1.54328970E-01 
   2.38088610E+01    5.35328140E-01 
   6.44360830E+00    4.44634540E-01 
SP   3    1.000000
   5.03315130E+00   -9.99672300E-02   1.55916270E-01 
   1.16959610E+00    3.99512830E-01   6.07683720E-01 
   3.80389000E-01    7.00115470E-01   3.91957390E-01 

[MO]
Sym=X
Ene= -20.440556
Spin=Alpha
Occup=1
     1    7.030276195915e-01
     2    1.942266679101e-02
     3   -1.402757812220e-18
     4   -1.940974026528e-16
     5    5.700756468983e-03
     6   -7.030276195942e-01
     7   -1.942266679106e-02
     8   -2.700481277045e-18
     9   -1.985977418238e-16
    10    5.700756468983e-03
Sym=X
Ene= -20.439475
Spin=Alpha
Occup=1
     1    7.037178208509e-01
     2    1.251294007978e-02
     3   -3.466496311795e-18
     4    4.024099874997e-18
     5    1.452362138755e-04
     6    7.037178208483e-01
     7    1.251294007971e-02
     8   -6.431976599108e-18
     9    7.873905485715e-18
    10   -1.452362138547e-04
Sym=X
Ene= -1.615290
Spin=Alpha
Occup=1
     1   -1.683847666800e-01
     2    5.709690587538e-01
     3   -1.196642657701e-16
     4   -9.872862655155e-16
     5    1.771292410009e-01
     6   -1.683847666800e-01
     7    5.709690587538e-01
     8   -1.626851769960e-16
     9   -1.046173168110e-15
    10   -1.771292410009e-01
Sym=X
Ene= -1.089543
Spin=Alpha
Occup=1
     1    1.849691220879e-01
     2   -7.762560183510e-01
     3    2.510729011418e-17
     4    5.552646777782e-16
     5    1.582641356512e-01
     6   -1.849691220879e-01
     7    7.762560183510e-01
     8   -6.932188499766e-17
     9    6.059751199776e-16
    10    1.582641356512e-01
Sym=X
Ene= -0.618252
Spin=Alpha
Occup=1
     1    6.708841828099e-02
     2   -3.355745633299e-01
     3    3.540993181141e-15
     4   -2.054300142070e-14
     5    6.135194285884e-01
     6    6.708841828100e-02
     7   -3.355745633299e-01
     8    3.525458107117e-15
     9   -2.060449770603e-14
    10   -6.135194285884e-01
Sym=X
Ene= -0.715410
Spin=Alpha
Occup=1
     1   -2.158982772396e-16
     2    2.127550030879e-15
     3    6.586829397940e-01
     4    2.116015357183e-15
     5   -3.397908950196e-15
     6   -3.873915727747e-16
     7    2.260178281852e-15
     8    6.586829397940e-01
     9    1.617153608832e-15
    10    3.338290350763e-15
Sym=X
Ene= -0.715410
Spin=Alpha
Occup=1
     1   -2.013404422446e-15
     2    8.938880097284e-15
     3    1.413271931395e-15
     4   -6.586829397940e-01
     5   -1.933026217311e-14
     6   -2.067691586909e-15
     7    1.004798498390e-14
     8    1.491409026713e-15
     9   -6.586829397940e-01
    10    1.938031808875e-14
Sym=X
Ene= -0.411488
Spin=Alpha
Occup=1
     1   -1.368660434484e-16
     2    1.240310427401e-16
     3    7.680668024687e-01
     4   -3.319395065348e-15
     5   -8.280286107479e-17
     6    3.314176386616e-17
     7   -2.418943803573e-16
     8   -7.680668024687e-01
     9    3.216836316094e-15
    10    5.228023914439e-17
Sym=X
Ene= -0.411488
Spin=Alpha
Occup=1
     1   -3.867112496836e-17
     2    1.637480713737e-16
     3   -2.351707356955e-15
     4   -7.680668024687e-01
     5    1.711438741973e-16
     6   -2.088763280004e-16
     7   -5.014318529053e-17
     8    3.281780026226e-15
     9    7.680668024687e-01
    10   -1.401516077711e-16
Sym=X
Ene= 0.693563
Spin=Alpha
Occup=0
     1   -9.450022123967e-02
     2    5.826446246161e-01
     3   -1.170730546626e-16
     4   -7.742101811720e-18
     5    9.449785794612e-01
     6    9.450022123967e-02
     7   -5.826446246161e-01
     8   -9.756476708615e-17
     9    4.213469653257e-16
    10    9.449785794612e-01

======= END OF MOLDEN-FORMAT MOLECULAR ORBITALS =======

          Ground-State Mulliken Net Atomic Charges

     Atom                 Charge (a.u.)
  ----------------------------------------
      1 O                     0.000000
      2 O                     0.000000
  ----------------------------------------
  Sum of atomic charges =     0.000000

 -----------------------------------------------------------------
                    Cartesian Multipole Moments
 -----------------------------------------------------------------
    Charge (ESU x 10^10)
                 0.0000
    Dipole Moment (Debye)
         X      -0.0000      Y      -0.0000      Z       0.0000
       Tot       0.0000
    Quadrupole Moments (Debye-Ang)
        XX      -8.4723     XY      -0.0000     YY      -8.4723
        XZ      -0.0000     YZ      -0.0000     ZZ      -9.7174
    Octopole Moments (Debye-Ang^2)
       XXX      -0.0000    XXY      -0.0000    XYY      -0.0000
       YYY      -0.0000    XXZ       0.0000    XYZ      -0.0000
       YYZ       0.0000    XZZ      -0.0000    YZZ      -0.0000
       ZZZ       0.0000
    Hexadecapole Moments (Debye-Ang^3)
      XXXX      -3.9610   XXXY      -0.0000   XXYY      -1.3203
      XYYY      -0.0000   YYYY      -3.9610   XXXZ      -0.0000
      XXYZ      -0.0000   XYYZ      -0.0000   YYYZ      -0.0000
      XXZZ      -4.5484   XYZZ      -0.0000   YYZZ      -4.5484
      XZZZ      -0.0000   YZZZ      -0.0000   ZZZZ     -23.3949
 -----------------------------------------------------------------
 Mayer SCF Bond Order, atomic valence on the diagonal:

            1           2
    1   2.0000000   2.0000000
    2   2.0000000   2.0000000


 Total job time:  52.88s(wall), 17.14s(cpu) 
 Tue Oct 24 11:21:31 2023

======= MOLDEN-FORMATTED INPUT FILE FOLLOWS =======
[Molden Format]
[Atoms] (Angs)
  O      1    8      0.00000000      0.00000000     -0.60376000
  O      2    8      0.00000000      0.00000000      0.60376000
[GTO]
1    0
S    3    1.000000
   1.30709320E+02    1.54328970E-01 
   2.38088610E+01    5.35328140E-01 
   6.44360830E+00    4.44634540E-01 
SP   3    1.000000
   5.03315130E+00   -9.99672300E-02   1.55916270E-01 
   1.16959610E+00    3.99512830E-01   6.07683720E-01 
   3.80389000E-01    7.00115470E-01   3.91957390E-01 

2    0
S    3    1.000000
   1.30709320E+02    1.54328970E-01 
   2.38088610E+01    5.35328140E-01 
   6.44360830E+00    4.44634540E-01 
SP   3    1.000000
   5.03315130E+00   -9.99672300E-02   1.55916270E-01 
   1.16959610E+00    3.99512830E-01   6.07683720E-01 
   3.80389000E-01    7.00115470E-01   3.91957390E-01 

[MO]
Sym=X
Ene= -20.440556
Spin=Alpha
Occup=1
     1    7.030276195915e-01
     2    1.942266679101e-02
     3   -1.402757812220e-18
     4   -1.940974026528e-16
     5    5.700756468983e-03
     6   -7.030276195942e-01
     7   -1.942266679106e-02
     8   -2.700481277045e-18
     9   -1.985977418238e-16
    10    5.700756468983e-03
Sym=X
Ene= -20.439475
Spin=Alpha
Occup=1
     1    7.037178208509e-01
     2    1.251294007978e-02
     3   -3.466496311795e-18
     4    4.024099874997e-18
     5    1.452362138755e-04
     6    7.037178208483e-01
     7    1.251294007971e-02
     8   -6.431976599108e-18
     9    7.873905485715e-18
    10   -1.452362138547e-04
Sym=X
Ene= -1.615290
Spin=Alpha
Occup=1
     1   -1.683847666800e-01
     2    5.709690587538e-01
     3   -1.196642657701e-16
     4   -9.872862655155e-16
     5    1.771292410009e-01
     6   -1.683847666800e-01
     7    5.709690587538e-01
     8   -1.626851769960e-16
     9   -1.046173168110e-15
    10   -1.771292410009e-01
Sym=X
Ene= -1.089543
Spin=Alpha
Occup=1
     1    1.849691220879e-01
     2   -7.762560183510e-01
     3    2.510729011418e-17
     4    5.552646777782e-16
     5    1.582641356512e-01
     6   -1.849691220879e-01
     7    7.762560183510e-01
     8   -6.932188499766e-17
     9    6.059751199776e-16
    10    1.582641356512e-01
Sym=X
Ene= -0.618252
Spin=Alpha
Occup=1
     1    6.708841828099e-02
     2   -3.355745633299e-01
     3    3.540993181141e-15
     4   -2.054300142070e-14
     5    6.135194285884e-01
     6    6.708841828100e-02
     7   -3.355745633299e-01
     8    3.525458107117e-15
     9   -2.060449770603e-14
    10   -6.135194285884e-01
Sym=X
Ene= -0.715410
Spin=Alpha
Occup=1
     1   -2.158982772396e-16
     2    2.127550030879e-15
     3    6.586829397940e-01
     4    2.116015357183e-15
     5   -3.397908950196e-15
     6   -3.873915727747e-16
     7    2.260178281852e-15
     8    6.586829397940e-01
     9    1.617153608832e-15
    10    3.338290350763e-15
Sym=X
Ene= -0.715410
Spin=Alpha
Occup=1
     1   -2.013404422446e-15
     2    8.938880097284e-15
     3    1.413271931395e-15
     4   -6.586829397940e-01
     5   -1.933026217311e-14
     6   -2.067691586909e-15
     7    1.004798498390e-14
     8    1.491409026713e-15
     9   -6.586829397940e-01
    10    1.938031808875e-14
Sym=X
Ene= -0.411488
Spin=Alpha
Occup=1
     1   -1.368660434484e-16
     2    1.240310427401e-16
     3    7.680668024687e-01
     4   -3.319395065348e-15
     5   -8.280286107479e-17
     6    3.314176386616e-17
     7   -2.418943803573e-16
     8   -7.680668024687e-01
     9    3.216836316094e-15
    10    5.228023914439e-17
Sym=X
Ene= -0.411488
Spin=Alpha
Occup=1
     1   -3.867112496836e-17
     2    1.637480713737e-16
     3   -2.351707356955e-15
     4   -7.680668024687e-01
     5    1.711438741973e-16
     6   -2.088763280004e-16
     7   -5.014318529053e-17
     8    3.281780026226e-15
     9    7.680668024687e-01
    10   -1.401516077711e-16
Sym=X
Ene= 0.693563
Spin=Alpha
Occup=0
     1   -9.450022123967e-02
     2    5.826446246161e-01
     3   -1.170730546626e-16
     4   -7.742101811720e-18
     5    9.449785794612e-01
     6    9.450022123967e-02
     7   -5.826446246161e-01
     8   -9.756476708615e-17
     9    4.213469653257e-16
    10    9.449785794612e-01

======= END OF MOLDEN-FORMATTED INPUT FILE =======


        *************************************************************
        *                                                           *
        *  Thank you very much for using Q-Chem.  Have a nice day.  *
        *                                                           *
        *************************************************************


