                  Welcome to Q-Chem
     A Quantum Leap Into The Future Of Chemistry


 Q-Chem 6.0 (devel), Q-Chem, Inc., Pleasanton, CA (2022)

 E. Epifanovsky,  A. T. B. Gilbert,  Xintian Feng,  Joonho Lee,  Yuezhi Mao,  
 N. Mardirossian,  P. Pokhilko,  A. White,  M. Wormit,  M. P. Coons,  
 A. L. Dempwolff,  Zhengting Gan,  D. Hait,  P. R. Horn,  L. D. Jacobson,  
 I. Kaliman,  J. Kussmann,  A. W. Lange,  Ka Un Lao,  D. S. Levine,  Jie Liu,  
 S. C. McKenzie,  A. F. Morrison,  K. Nanda,  F. Plasser,  D. R. Rehn,  
 M. L. Vidal,  Zhi-Qiang You,  Ying Zhu,  B. Alam,  B. Albrecht,  
 A. Aldossary,  E. Alguire,  J. H. Andersen,  V. Athavale,  D. Barton,  
 K. Begam,  A. Behn,  N. Bellonzi,  Y. A. Bernard,  E. J. Berquist,  
 H. Burton,  A. Carreras,  K. Carter-Fenk,  Romit Chakraborty,  
 Chandrima Chakravarty,  Junhan Chen,  A. D. Chien,  K. D. Closser,  
 V. Cofer-Shabica,  L. Cunha,  S. Dasgupta,  Jia Deng,  M. de Wergifosse,  
 M. Diedenhofen,  Hainam Do,  S. Ehlert,  Po-Tung Fang,  S. Fatehi,  
 Qingguo Feng,  T. Friedhoff,  B. Ganoe,  J. Gayvert,  Qinghui Ge,  
 G. Gidofalvi,  M. Goldey,  J. Gomes,  C. Gonzalez-Espinoza,  S. Gulania,  
 A. Gunina,  J. A. Gyamfi,  M. W. D. Hanson-Heine,  P. H. P. Harbach,  
 A. W. Hauser,  M. F. Herbst,  M. Hernandez Vera,  M. Hodecker,  
 Z. C. Holden,  S. Houck,  Xunkun Huang,  Kerwin Hui,  B. C. Huynh,  
 K. Ikeda,  M. Ivanov,  Hyunjun Ji,  Zuxin Jin,  Hanjie Jiang,  B. Kaduk,  
 S. Kaehler,  R. Kang,  K. Khistyaev,  Jaehoon Kim,  Yongbin Kim,  
 P. Klunzinger,  Z. Koczor-Benda,  Joong Hoon Koh,  D. Kosenkov,  
 Saikiran Kotaru,  L. Koulias,  T. Kowalczyk,  C. M. Krauter,  K. Kue,  
 A. Kunitsa,  T. Kus,  A. Landau,  K. V. Lawler,  D. Lefrancois,  S. Lehtola,  
 Rain Li,  Shaozhi Li,  Yi-Pei Li,  Jiashu Liang,  M. Liebenthal,  
 Hung-Hsuan Lin,  You-Sheng Lin,  Fenglai Liu,  Kuan-Yu Liu,  
 M. Loipersberger,  A. Luenser,  C. Malbon,  A. Manjanath,  P. Manohar,  
 E. Mansoor,  S. F. Manzer,  Shan-Ping Mao,  A. V. Marenich,  T. Markovich,  
 S. Mason,  F. Matz,  S. A. Maurer,  P. F. McLaughlin,  M. F. S. J. Menger,  
 J.-M. Mewes,  S. A. Mewes,  P. Morgante,  Mohammad Mostafanejad,  
 J. W. Mullinax,  K. J. Oosterbaan,  G. Paran,  V. Parravicini,  
 Alexander C. Paul,  Suranjan K. Paul,  F. Pavosevic,  Zheng Pei,  S. Prager,  
 E. I. Proynov,  E. Ramos,  B. Rana,  A. E. Rask,  A. Rettig,  R. M. Richard,  
 F. Rob,  E. Rossomme,  T. Scheele,  M. Scheurer,  M. Schneider,  
 P. E. Schneider,  N. Sergueev,  S. M. Sharada,  Hengyuan Shen,  
 W. Skomorowski,  D. W. Small,  C. J. Stein,  Yingli Su,  Yu-Chuan Su,  
 E. J. Sundstrom,  Zhen Tao,  J. Thirman,  Hung-Yi Tsai,  T. Tsuchimochi,  
 N. M. Tubman,  C. Utku,  S. P. Veccham,  O. Vydrov,  J. Wenzel,  
 Jonathan Wong,  J. Witte,  A. Yamada,  Chou-Hsun Yang,  Kun Yao,  
 S. Yeganeh,  S. R. Yost,  A. Zech,  F. Zeller,  Igor Ying Zhang,  
 Xing Zhang,  Yu Zhang,  D. Zuev,  A. Aspuru-Guzik,  A. T. Bell,  
 N. A. Besley,  K. B. Bravaya,  B. R. Brooks,  D. Casanova,  Jeng-Da Chai,  
 Hsing-Ta Chen,  S. Coriani,  C. J. Cramer,  A. E. DePrince, III,  
 R. A. DiStasio Jr.,  A. Dreuw,  B. D. Dunietz,  T. R. Furlani,  
 W. A. Goddard III,  S. Grimme,  S. Hammes-Schiffer,  T. Head-Gordon,  
 W. J. Hehre,  Chao-Ping Hsu,  T.-C. Jagau,  Yousung Jung,  A. Klamt,  
 Jing Kong,  D. S. Lambrecht,  Xiangyuan Li,  WanZhen Liang,  N. J. Mayhall,  
 C. W. McCurdy,  J. B. Neaton,  T. Neudecker,  C. Ochsenfeld,  
 J. A. Parkhill,  R. Peverati,  V. A. Rassolov,  Haisheng Ren,  Yihan Shao,  
 L. V. Slipchenko,  R. P. Steele,  J. E. Subotnik,  A. J. W. Thom,  
 A. Tkatchenko,  D. G. Truhlar,  T. Van Voorhis,  Fan Wang,  
 T. A. Wesolowski,  K. B. Whaley,  H. L. Woodcock III,  P. M. Zimmerman,  
 S. Faraji,  P. M. W. Gill,  M. Head-Gordon,  J. M. Herbert,  A. I. Krylov

 Contributors to earlier versions of Q-Chem not listed above: 
 R. D. Adamson,  B. Austin,  R. Baer,  J. Baker,  G. J. O. Beran,  
 K. Brandhorst,  S. T. Brown,  E. F. C. Byrd,  Arup K. Chakraborty,  
 G. K. L. Chan,  Chun-Min Chang,  Yunqing Chen,  C.-L. Cheng,  
 Siu Hung Chien,  D. M. Chipman,  D. L. Crittenden,  H. Dachsel,  
 R. J. Doerksen,  A. D. Dutoi,  R. G. Edgar,  J. Fosso-Tande,  
 L. Fusti-Molnar,  D. Ghosh,  A. Ghysels,  A. Golubeva-Zadorozhnaya,  
 J. Gonthier,  M. S. Gordon,  S. R. Gwaltney,  G. Hawkins,  J. E. Herr,  
 A. Heyden,  S. Hirata,  E. G. Hohenstein,  G. Kedziora,  F. J. Keil,  
 C. Kelley,  Jihan Kim,  R. A. King,  R. Z. Khaliullin,  P. P. Korambath,  
 W. Kurlancheek,  A. Laurent,  A. M. Lee,  M. S. Lee,  S. V. Levchenko,  
 Ching Yeh Lin,  D. Liotard,  E. Livshits,  R. C. Lochan,  I. Lotan,  
 L. A. Martinez-Martinez,  P. E. Maslen,  N. Nair,  D. P. O'Neill,  
 D. Neuhauser,  E. Neuscamman,  C. M. Oana,  R. Olivares-Amaya,  R. Olson,  
 T. M. Perrine,  B. Peters,  P. A. Pieniazek,  A. Prociuk,  Y. M. Rhee,  
 J. Ritchie,  M. A. Rohrdanz,  E. Rosta,  N. J. Russ,  H. F. Schaefer III,  
 M. W. Schmidt,  N. E. Schultz,  S. Sharma,  N. Shenvi,  C. D. Sherrill,  
 A. C. Simmonett,  A. Sodt,  T. Stein,  D. Stuck,  K. S. Thanthiriwatte,  
 V. Vanovschi,  L. Vogt,  Tao Wang,  A. Warshel,  M. A. Watson,  
 C. F. Williams,  Q. Wu,  X. Xu,  Jun Yang,  W. Zhang,  Yan Zhao

   Please cite Q-Chem as follows:
  "Software for the frontiers of quantum chemistry:
   An overview of developments in the Q-Chem 5 package"
   J. Chem. Phys. 155, 084801 (2021)
   https://doi.org/10.1063/5.0055522 (open access)

 Q-Chem 6.0.1 for Intel X86 EM64T Linux

 Parts of Q-Chem use Armadillo 9.900.5 (Nocturnal Misbehaviour).
 http://arma.sourceforge.net/

 Q-Chem begins on Fri Sep  8 17:39:54 2023  

 Host: atlas-120
0

     Scratch files written to ./qchem155204//
 Processing $rem in /scratch/abel/SOFTWARE/qchem/config/preferences:
 Processing $rem in /dipc/acebg/.qchemrc:

 Checking the input file for inconsistencies... 	...done.

--------------------------------------------------------------
User input:
--------------------------------------------------------------
$comment
  RAS-SF CALCULATION
$end

$molecule
 READ C54H24B4_singlet.xyz
$end

$rem
!**CALCULATION TYPE***
JOBTYPE            sp
EXCHANGE           HF
CORRELATION        RASCI    !RASCI=Casanova; RASCI2=Zimmerman
BASIS              6-31G*

!***SCF REFERENCE***
!SKIP_SCFMAN        FALSE
UNRESTRICTED       FALSE
!SCF_GUESS_MIX      FALSE
!SCF_GUESS_ALWAYS   FALSE
MAX_SCF_CYCLES     999
SCF_CONVERGENCE    10
SCF_ALGORITHM      DIIS_GDM !DIIS,DM,DIIS_DM,GDM,DIIS_GDM,GD

!SYMMETRY           TRUE !use of symmetry for calculating integrals
!SYM_IGNORE         FALSE !turn off using symmetry
!SYM_TOL            5 !tolerance for determining point group
!USE_ABELIAN_SUBGROUP      !define to use abelian grou

!THRESH             14
SCF_FINAL_PRINT     1 !0,1,2,3

!****RAS-SF****
RAS_ROOTS          20       !number of RAS-CI roots to be computed
SET_ITER           100     !number of iterations in RASCI
RAS_ELEC           4       !number of electrons in RAS2
RAS_ELEC_ALPHA     3       !spin-α electrons in RAS2
RAS_ELEC_BETA      1       !spin-β electrons in RAS2

RAS_ACT            4       !number of orbitals in RAS2
RAS_ACT_ORB   [183,184,185,186] !user-selected RAS2 orbitals
RAS_OCC           182       !number of orbitals in RAS1
N_FROZEN_CORE      FC     !Number of frozen core orbitals
N_FROZEN_VIRTUAL   0      !Number of frozen virtual orbitals

RAS_DO_HOLE        TRUE   !presence of hole excitations in RAS-CI wave function
RAS_DO_PART        TRUE   !presence of particle excitations
!RAS_AMPL_PRINT     10     !threshold (×10 2 ) for the CI amplitudes

!RAS_GUESS_CS       0      !number of closed shell guess conﬁgurations
!RAS_SPIN_MULT      0      !spin multiplicity: 0=any, 2n+1=defined
!RAS_SRDFT          FALSE  !short-range density functional RAS-CI
!RAS_NFRAG          0     !fragments of excitation analysis in RASCI

RAS_PRINT           2      !level of information
RAS_NATORB          TRUE   !computation of the natural orbital occupancies
!RAS_NATORB_STATE  0      !Saves NO of i RAS computed state in .fchk ﬁle
!RAS_FOD            TRUE

!****RAS-SOC****
CALC_SOC           TRUE   !calculate SOC for EOM-CC, RAS-CI, ADC, TDDFT/TDA and TDDFT
!RAS_SOC_2E        TRUE   !two-electron mean-ﬁeld contribution, default=true
RAS_SOC_SYM_DENS   TRUE   !averaging of α and β densities

!****MEMORY****
MEM_TOTAL          12000 !Default 2000 MB
MEM_STATIC         3000  !Default 64 MB

!**Molecular Properties and Analysis **
!POP_MULLIKEN       TRUE   !Run Mulliken population analysis
!LOWDIN_POPULATION  TRUE   !Run Löwdin population analysis
!GUI                2       !Checkpoints generation
STATE_ANALYSIS     TRUE

!**Wave function analysis of RAS-CI states: MOLDEN**
!PLOTS = 0     ! Note: This can be omitted, default is 0
!NTO_PAIRS = 2 ! Note: This can be omitted, default is 2
GUI 2
!MOLDEN_FORMAT      TRUE
!PRINT_ORBITALS     15

!**Wave function analysis of RAS-CI state: CUBE**
!NTO_PAIRS = 2 ! Note: This can be omitted, default is 2
!PLOTS = 1
!GUI 0

!**SR-DFT**         
!RAS_SRDFT           TRUE !Perform short-range density functional RAS-CI               
!RAS_SRDFT_EXC       0 !EX functional. 0=HF.
!RAS_SRDFT_ONLY_COR  TRUE !No use of EXC functional 
!RAS_SRDFT_COR       srPBE !short-range correlation functional
!ras_srdft_0         TRUE !true: no iteration (one-shot); false: iteration             
!RAS_OMEGA           400 !Coulomb range-separation parameter. def=400                  
!RAS_SRDFT_DAMP     0.5 !dumping factor. def=0.5                                      
!GUI 0  
$end

!$plots
!   grid_points 100 100 100
!   grid_range  (-10,10) (-10,10) (-10,10)
!$end

!$occupied
!   1:77 78 79 80
!   1:77 80
!$end

--------------------------------------------------------------
 ----------------------------------------------------------------
             Standard Nuclear Orientation (Angstroms)
    I     Atom           X                Y                Z
 ----------------------------------------------------------------
    1      H       9.9350560000    -0.0000000000     3.3929719674
    2      H       9.9026330000     0.0000000000    -3.4189700326
    3      H       7.7282910000    -0.0000000000     4.7139829674
    4      H       7.6904830000     0.0000000000    -4.7384430326
    5      H       5.2861300000    -0.0000000000     4.7263679674
    6      H       5.2481020000     0.0000000000    -4.7296430326
    7      H       3.1157500000    -0.0000000000     3.4298559674
    8      H       3.0994310000     0.0000000000    -3.4109620326
    9      H       1.1957220000    -0.0000000000     3.4152919674
   10      H       1.1934070000     0.0000000000    -3.3901470326
   11      H      -1.1957220000    -0.0000000000     3.4152919674
   12      H      -1.1934070000     0.0000000000    -3.3901470326
   13      H      -3.1157500000    -0.0000000000     3.4298559674
   14      H      -3.0994310000     0.0000000000    -3.4109620326
   15      H      -5.2861300000    -0.0000000000     4.7263679674
   16      H      -5.2481020000     0.0000000000    -4.7296430326
   17      H      -7.7282910000    -0.0000000000     4.7139829674
   18      H      -7.6904830000     0.0000000000    -4.7384430326
   19      H      -9.9350560000    -0.0000000000     3.3929719674
   20      H      -9.9026330000     0.0000000000    -3.4189700326
   21      B       7.9395970000     0.0000000000    -0.0053480326
   22      B       5.0596200000     0.0000000000     0.0061399674
   23      B      -5.0596200000    -0.0000000000     0.0061399674
   24      B      -7.9395970000    -0.0000000000    -0.0053480326
   25      H      11.1873690000     0.0000000000     1.3361519674
   26      H      11.1639410000     0.0000000000    -1.3665980326
   27      C      10.0987570000     0.0000000000     1.2662369674
   28      C      10.0760210000     0.0000000000    -1.2796280326
   29      C       9.3776140000    -0.0000000000     2.4582899674
   30      C       9.4614700000     0.0000000000    -0.0114770326
   31      C       9.3402720000     0.0000000000    -2.4872210326
   32      C       7.9385470000    -0.0000000000     2.5374009674
   33      C       7.9208450000     0.0000000000    -2.5614190326
   34      C       7.1917430000    -0.0000000000     3.7676979674
   35      C       7.2015870000     0.0000000000     1.3326979674
   36      C       7.1889080000     0.0000000000    -1.3417880326
   37      C       7.1599820000     0.0000000000    -3.7887740326
   38      C       5.8141610000    -0.0000000000     3.7750189674
   39      C       5.8000900000    -0.0000000000     1.3321689674
   40      C       5.7952240000     0.0000000000    -1.3295610326
   41      C       5.7867800000     0.0000000000    -3.7845090326
   42      C       5.0555280000    -0.0000000000     2.5482129674
   43      C       5.0366920000     0.0000000000    -2.5474320326
   44      C       3.6459200000    -0.0000000000     2.4830229674
   45      C       3.5578080000     0.0000000000     0.0108649674
   46      C       3.6386650000     0.0000000000    -2.4695040326
   47      C       2.8838110000    -0.0000000000     1.2636879674
   48      C       2.8776040000     0.0000000000    -1.2371480326
   49      C       1.4383980000    -0.0000000000     1.2610579674
   50      C       1.4402710000     0.0000000000    -1.2333580326
   51      C       0.6841950000    -0.0000000000     2.4614299674
   52      C       0.7215960000     0.0000000000     0.0161349674
   53      C       0.6828050000     0.0000000000    -2.4360740326
   54      C      -0.6841950000    -0.0000000000     2.4614299674
   55      C      -0.7215960000    -0.0000000000     0.0161349674
   56      C      -0.6828050000     0.0000000000    -2.4360740326
   57      C      -1.4383980000    -0.0000000000     1.2610579674
   58      C      -1.4402710000     0.0000000000    -1.2333580326
   59      C      -2.8838110000    -0.0000000000     1.2636879674
   60      C      -2.8776040000     0.0000000000    -1.2371480326
   61      C      -3.6459200000    -0.0000000000     2.4830229674
   62      C      -3.5578080000    -0.0000000000     0.0108649674
   63      C      -3.6386650000     0.0000000000    -2.4695040326
   64      C      -5.0555280000    -0.0000000000     2.5482129674
   65      C      -5.0366920000     0.0000000000    -2.5474320326
   66      C      -5.8141610000    -0.0000000000     3.7750189674
   67      C      -5.8000900000    -0.0000000000     1.3321689674
   68      C      -5.7952240000     0.0000000000    -1.3295610326
   69      C      -5.7867800000     0.0000000000    -3.7845090326
   70      C      -7.1917430000    -0.0000000000     3.7676979674
   71      C      -7.2015870000    -0.0000000000     1.3326979674
   72      C      -7.1889080000    -0.0000000000    -1.3417880326
   73      C      -7.1599820000     0.0000000000    -3.7887740326
   74      C      -7.9385470000    -0.0000000000     2.5374009674
   75      C      -7.9208450000     0.0000000000    -2.5614190326
   76      C      -9.3776140000    -0.0000000000     2.4582899674
   77      C      -9.4614700000    -0.0000000000    -0.0114770326
   78      C      -9.3402720000     0.0000000000    -2.4872210326
   79      C     -10.0987570000    -0.0000000000     1.2662369674
   80      C     -10.0760210000    -0.0000000000    -1.2796280326
   81      H     -11.1873690000    -0.0000000000     1.3361519674
   82      H     -11.1639410000    -0.0000000000    -1.3665980326
 ----------------------------------------------------------------
 Molecular Point Group                 C2v   NOp =  4
 Largest Abelian Subgroup              C2v   NOp =  4
 Nuclear Repulsion Energy =        6439.86605821 hartrees
 There are      184 alpha and      184 beta electrons
 Requested basis set is 6-31G(d)
 There are 280 shells and 918 basis functions

 Total QAlloc Memory Limit  12000 MB
 Mega-Array Size      2933 MB
 MEM_STATIC part      3000 MB

 A cutoff of  1.0D-14 yielded  15380 shell pairs
 There are    184253 function pairs
 Smallest overlap matrix eigenvalue = 1.07E-04

 Scale SEOQF with 1.000000e-02/1.000000e+00/1.000000e-01

 Standard Electronic Orientation quadrupole field applied
 Nucleus-field energy     =    -0.0000001573 hartrees
 Guess from superposition of atomic densities
 Warning:  Energy on first SCF cycle will be non-variational
 SAD guess density has 368.000001 electrons

 -----------------------------------------------------------------------
  General SCF calculation program by
  Eric Jon Sundstrom, Paul Horn, Yuezhi Mao, Dmitri Zuev, Alec White,
  David Stuck, Shaama M.S., Shane Yost, Joonho Lee, David Small,
  Daniel Levine, Susi Lehtola, Hugh Burton, Evgeny Epifanovsky,
  Bang C. Huynh
 -----------------------------------------------------------------------
 Hartree-Fock
 A restricted SCF calculation will be
 performed using DIIS, GDM
 SCF converges when RMS gradient is below 1.0e-10
 ---------------------------------------
  Cycle       Energy         DIIS error
 ---------------------------------------
    1   -2185.7053025558      2.85e-02  
    2   -2156.8450910077      2.12e-03  Done DIIS. Switching to GDM
 ---------------------------------------
  Cycle       Energy        RMS Gradient
 ---------------------------------------
    1   -2156.8450910077      1.27e-01   Descent step
    2   -2157.2704806919      3.47e-02   Descent step
    3   -2157.5152798937      1.84e-02   Dog-leg BFGS step
    4   -2157.6033542289      2.55e-02   Normal BFGS step
    5   -2157.6053382836      1.84e-02   Normal BFGS step
    6   -2157.6073129751      6.93e-03   Normal BFGS step
    7   -2157.6079558307      6.27e-03   Normal BFGS step
    8   -2157.6082294648      3.19e-03   Normal BFGS step
    9   -2157.6082802927      8.47e-04   Normal BFGS step
   10   -2157.6082915627      5.40e-04   Normal BFGS step
   11   -2157.6082958357      2.50e-04   Normal BFGS step
   12   -2157.6082967128      9.01e-05   Normal BFGS step
   13   -2157.6082969175      6.01e-05   Normal BFGS step
   14   -2157.6082969905      3.73e-05   Normal BFGS step
   15   -2157.6082970285      1.92e-05   Normal BFGS step
   16   -2157.6082970415      1.34e-05   Normal BFGS step
   17   -2157.6082970449      8.25e-06   Normal BFGS step
   18   -2157.6082970458      3.07e-06   Normal BFGS step
   19   -2157.6082970459      1.35e-06   Normal BFGS step
   20   -2157.6082970460      5.88e-07   Normal BFGS step
   21   -2157.6082970460      3.24e-07   Normal BFGS step
   22   -2157.6082970460      1.82e-07   Normal BFGS step
   23   -2157.6082970460      1.33e-07   Normal BFGS step
   24   -2157.6082970460      5.75e-08   Normal BFGS step
   25   -2157.6082970460      2.62e-08   Normal BFGS step
   26   -2157.6082970460      1.82e-08   Normal BFGS step
   27   -2157.6082970460      4.51e-09   Normal BFGS step
  GDM::WARNING energy changes are now smaller than effective accuracy.
  GDM::        calculation will continue, but THRESH should be increased
  GDM::        or SCF_CONVERGENCE decreased. 
  GDM::        effective_thresh = 1.35e-08
   28   -2157.6082970460      2.46e-09   Normal BFGS step
   29   -2157.6082970460      8.58e-10   Normal BFGS step
  GDM::WARNING energy changes are now smaller than effective accuracy.
  GDM::        calculation will continue, but THRESH should be increased
  GDM::        or SCF_CONVERGENCE decreased. 
  GDM::        effective_thresh = 1.35e-08
   30   -2157.6082970460      6.24e-10   Normal BFGS step
   31   -2157.6082970460      2.68e-10   Normal BFGS step
  GDM::WARNING energy changes are now smaller than effective accuracy.
  GDM::        calculation will continue, but THRESH should be increased
  GDM::        or SCF_CONVERGENCE decreased. 
  GDM::        effective_thresh = 1.35e-08
   32   -2157.6082970460      9.49e-11  Convergence criterion met
 ---------------------------------------
 DFT Correlation    Energy =   0.00000000000000
 DFT Exchange       Energy =   0.00000000000000
 HF Exchange        Energy = -304.62186431605045
 Kinetic            Energy =   0.00000000000000
 Nuclear Attraction Energy =   0.00000000000000
 One-Electron       Energy = -15749.36741414917924
 Total Coulomb      Energy = 7456.51492336168667
 Final Alpha MO Eigenvalues
            1           2           3           4           5           6
    1 -11.2920069 -11.2919947 -11.2874546 -11.2874475 -11.2829019 -11.2821772
            7           8           9          10          11          12
    1 -11.2821771 -11.2819774 -11.2750099 -11.2750098 -11.2732925 -11.2719185
           13          14          15          16          17          18
    1 -11.2709253 -11.2709250 -11.2693017 -11.2681423 -11.2681410 -11.2679047
           19          20          21          22          23          24
    1 -11.2565770 -11.2565770 -11.2543640 -11.2543640 -11.2525352 -11.2525352
           25          26          27          28          29          30
    1 -11.2520714 -11.2520714 -11.2507340 -11.2507340 -11.2501987 -11.2501987
           31          32          33          34          35          36
    1 -11.2493570 -11.2493570 -11.2474400 -11.2474400 -11.2412780 -11.2412780
           37          38          39          40          41          42
    1 -11.2397270 -11.2397270 -11.2248289 -11.2248289 -11.2233277 -11.2233277
           43          44          45          46          47          48
    1 -11.2178573 -11.2178573 -11.2175507 -11.2175507 -11.1987795 -11.1987793
           49          50          51          52          53          54
    1 -11.1924610 -11.1924610 -11.1915792 -11.1915792 -11.1870294 -11.1870294
           55          56          57          58          59          60
    1  -7.5264257  -7.5264251  -7.5210483  -7.5210483  -1.2234182  -1.1793135
           61          62          63          64          65          66
    1  -1.1634849  -1.1620407  -1.1556032  -1.1505946  -1.1476354  -1.1206013
           67          68          69          70          71          72
    1  -1.1083404  -1.1015474  -1.0921905  -1.0866437  -1.0632640  -1.0542395
           73          74          75          76          77          78
    1  -1.0510582  -1.0399068  -1.0243029  -1.0238785  -1.0225587  -1.0139877
           79          80          81          82          83          84
    1  -0.9994030  -0.9942818  -0.9872594  -0.9753593  -0.9563631  -0.9525493
           85          86          87          88          89          90
    1  -0.9356895  -0.9090868  -0.9021481  -0.9013870  -0.8619833  -0.8610265
           91          92          93          94          95          96
    1  -0.8599887  -0.8469585  -0.8277213  -0.8263616  -0.8215974  -0.8208101
           97          98          99         100         101         102
    1  -0.8041527  -0.8040103  -0.7948407  -0.7810645  -0.7717274  -0.7501887
          103         104         105         106         107         108
    1  -0.7429590  -0.7348450  -0.7267453  -0.7265386  -0.7202847  -0.7111453
          109         110         111         112         113         114
    1  -0.6972967  -0.6932256  -0.6800419  -0.6787468  -0.6715590  -0.6700811
          115         116         117         118         119         120
    1  -0.6483813  -0.6425433  -0.6424162  -0.6411669  -0.6393119  -0.6283654
          121         122         123         124         125         126
    1  -0.6258729  -0.6175026  -0.6170995  -0.6097358  -0.6058485  -0.5993889
          127         128         129         130         131         132
    1  -0.5990771  -0.5962448  -0.5848744  -0.5832843  -0.5771170  -0.5735333
          133         134         135         136         137         138
    1  -0.5687907  -0.5669739  -0.5604848  -0.5585647  -0.5580904  -0.5520233
          139         140         141         142         143         144
    1  -0.5496750  -0.5467298  -0.5414763  -0.5412732  -0.5348337  -0.5332833
          145         146         147         148         149         150
    1  -0.5307412  -0.5285046  -0.5243672  -0.5125645  -0.5080860  -0.5065679
          151         152         153         154         155         156
    1  -0.5037069  -0.5006937  -0.4998829  -0.4985138  -0.4911862  -0.4892623
          157         158         159         160         161         162
    1  -0.4759870  -0.4719777  -0.4700161  -0.4467450  -0.4434457  -0.4378350
          163         164         165         166         167         168
    1  -0.4320028  -0.4240223  -0.4220342  -0.4081385  -0.4080861  -0.3990322
          169         170         171         172         173         174
    1  -0.3984869  -0.3807545  -0.3801256  -0.3694508  -0.3670001  -0.3572258
          175         176         177         178         179         180
    1  -0.3490174  -0.3379586  -0.3265416  -0.3118481  -0.3064515  -0.2817505
          181         182         183         184         185         186
    1  -0.2432706  -0.2381129  -0.2379171  -0.1542880  -0.0938771  -0.0602455
          187         188         189         190         191         192
    1  -0.0081603   0.0642607   0.0801968   0.0929834   0.1025782   0.1087276
          193         194         195         196         197         198
    1   0.1146151   0.1491318   0.1573321   0.1628734   0.1638004   0.1680950
          199         200         201         202         203         204
    1   0.1790689   0.1924852   0.2118861   0.2157882   0.2237724   0.2321952
          205         206         207         208         209         210
    1   0.2405242   0.2483501   0.2484176   0.2534868   0.2545825   0.2553680
          211         212         213         214         215         216
    1   0.2630414   0.2696320   0.2739791   0.2761913   0.2776379   0.2821574
          217         218         219         220         221         222
    1   0.2883527   0.2887271   0.2946832   0.3013247   0.3078853   0.3092583
          223         224         225         226         227         228
    1   0.3134393   0.3207893   0.3209337   0.3346173   0.3407422   0.3427102
          229         230         231         232         233         234
    1   0.3555121   0.3562854   0.3564340   0.3678887   0.3745568   0.3764073
          235         236         237         238         239         240
    1   0.3814163   0.3819137   0.3833760   0.3931605   0.3994168   0.4000143
          241         242         243         244         245         246
    1   0.4017159   0.4029289   0.4048287   0.4064735   0.4085597   0.4138774
          247         248         249         250         251         252
    1   0.4161635   0.4162788   0.4341441   0.4349938   0.4357706   0.4458105
          253         254         255         256         257         258
    1   0.4460985   0.4477297   0.4554324   0.4586372   0.4621043   0.4627188
          259         260         261         262         263         264
    1   0.4730767   0.4767550   0.4827282   0.4829009   0.4865052   0.4868849
          265         266         267         268         269         270
    1   0.4898600   0.4898632   0.5018114   0.5058448   0.5089045   0.5101163
          271         272         273         274         275         276
    1   0.5220273   0.5221724   0.5231399   0.5245743   0.5249382   0.5282169
          277         278         279         280         281         282
    1   0.5286994   0.5403491   0.5418447   0.5420680   0.5602878   0.5606444
          283         284         285         286         287         288
    1   0.5726910   0.5766725   0.5898185   0.5933684   0.5979266   0.6073797
          289         290         291         292         293         294
    1   0.6245650   0.6296336   0.6300501   0.6354504   0.6446882   0.6524059
          295         296         297         298         299         300
    1   0.6553682   0.6583698   0.6750818   0.6761469   0.6775742   0.6836745
          301         302         303         304         305         306
    1   0.6920811   0.6974394   0.7010198   0.7018909   0.7040985   0.7059843
          307         308         309         310         311         312
    1   0.7117358   0.7121906   0.7129107   0.7182536   0.7207770   0.7245666
          313         314         315         316         317         318
    1   0.7254044   0.7371812   0.7386379   0.7418145   0.7481367   0.7494641
          319         320         321         322         323         324
    1   0.7533500   0.7569467   0.7612073   0.7634991   0.7643893   0.7649933
          325         326         327         328         329         330
    1   0.7660269   0.7681787   0.7695603   0.7709057   0.7729691   0.7751479
          331         332         333         334         335         336
    1   0.7772415   0.7801895   0.7830859   0.7892052   0.7906414   0.7912452
          337         338         339         340         341         342
    1   0.7956823   0.7989192   0.7989588   0.8018600   0.8019069   0.8041465
          343         344         345         346         347         348
    1   0.8057928   0.8089747   0.8102131   0.8107711   0.8138151   0.8138840
          349         350         351         352         353         354
    1   0.8148049   0.8163477   0.8172588   0.8201567   0.8212540   0.8234550
          355         356         357         358         359         360
    1   0.8255269   0.8259164   0.8268729   0.8277744   0.8346491   0.8423541
          361         362         363         364         365         366
    1   0.8459686   0.8478531   0.8505119   0.8536640   0.8539483   0.8569762
          367         368         369         370         371         372
    1   0.8582114   0.8662354   0.8722137   0.8757473   0.8795301   0.8807680
          373         374         375         376         377         378
    1   0.8869086   0.8913786   0.8983981   0.9005196   0.9116577   0.9118166
          379         380         381         382         383         384
    1   0.9228261   0.9279792   0.9292998   0.9348852   0.9362692   0.9435329
          385         386         387         388         389         390
    1   0.9458506   0.9512846   0.9564197   0.9566025   0.9627302   0.9814576
          391         392         393         394         395         396
    1   0.9844690   0.9882589   0.9993227   1.0084652   1.0118768   1.0120633
          397         398         399         400         401         402
    1   1.0159994   1.0174545   1.0176860   1.0230535   1.0257813   1.0259923
          403         404         405         406         407         408
    1   1.0364480   1.0371835   1.0441390   1.0461030   1.0502402   1.0578076
          409         410         411         412         413         414
    1   1.0610628   1.0624483   1.0699042   1.0709542   1.0720386   1.0736673
          415         416         417         418         419         420
    1   1.0791670   1.0810053   1.0843000   1.0869820   1.0978579   1.0988378
          421         422         423         424         425         426
    1   1.1028897   1.1029489   1.1053874   1.1054946   1.1120205   1.1125415
          427         428         429         430         431         432
    1   1.1164962   1.1166128   1.1172602   1.1278934   1.1283244   1.1306216
          433         434         435         436         437         438
    1   1.1308155   1.1325605   1.1381253   1.1382539   1.1384449   1.1439112
          439         440         441         442         443         444
    1   1.1456231   1.1515762   1.1544892   1.1551727   1.1640105   1.1646379
          445         446         447         448         449         450
    1   1.1754811   1.1808506   1.1838006   1.1838542   1.1892751   1.2001307
          451         452         453         454         455         456
    1   1.2033351   1.2043792   1.2066391   1.2073682   1.2082134   1.2096961
          457         458         459         460         461         462
    1   1.2116762   1.2133648   1.2193993   1.2233025   1.2246352   1.2263377
          463         464         465         466         467         468
    1   1.2279502   1.2288625   1.2359361   1.2414470   1.2537876   1.2621604
          469         470         471         472         473         474
    1   1.2672140   1.2784506   1.2818489   1.2822065   1.2866648   1.2950480
          475         476         477         478         479         480
    1   1.2967442   1.3021043   1.3029470   1.3074711   1.3226887   1.3238416
          481         482         483         484         485         486
    1   1.3456038   1.3535648   1.3557918   1.3602794   1.3606212   1.3640407
          487         488         489         490         491         492
    1   1.3642769   1.3673531   1.3685104   1.3858639   1.3910500   1.3946696
          493         494         495         496         497         498
    1   1.3960090   1.3981031   1.3991949   1.4013257   1.4099302   1.4149751
          499         500         501         502         503         504
    1   1.4265966   1.4281532   1.4291819   1.4308044   1.4452155   1.4481510
          505         506         507         508         509         510
    1   1.4608146   1.4626022   1.4758119   1.4799899   1.4852293   1.4856062
          511         512         513         514         515         516
    1   1.4858301   1.4919493   1.4958958   1.4990358   1.5046190   1.5051035
          517         518         519         520         521         522
    1   1.5113081   1.5147568   1.5154095   1.5164174   1.5199081   1.5231253
          523         524         525         526         527         528
    1   1.5244794   1.5262122   1.5351591   1.5377699   1.5395697   1.5408192
          529         530         531         532         533         534
    1   1.5438602   1.5487639   1.5523338   1.5560670   1.5702533   1.5756293
          535         536         537         538         539         540
    1   1.5766507   1.5879914   1.5910272   1.5991741   1.6142017   1.6160004
          541         542         543         544         545         546
    1   1.6286418   1.6316885   1.6345245   1.6349869   1.6473025   1.6504087
          547         548         549         550         551         552
    1   1.6554105   1.6575999   1.6577465   1.6636713   1.6645019   1.6663482
          553         554         555         556         557         558
    1   1.6929118   1.6957937   1.7034284   1.7036792   1.7041025   1.7142851
          559         560         561         562         563         564
    1   1.7160025   1.7162501   1.7234609   1.7320606   1.7447719   1.7449525
          565         566         567         568         569         570
    1   1.7458946   1.7474104   1.7477581   1.7477589   1.7559527   1.7559799
          571         572         573         574         575         576
    1   1.7653410   1.7659533   1.7660579   1.7753418   1.7846359   1.7892950
          577         578         579         580         581         582
    1   1.7962931   1.7992878   1.8022284   1.8054965   1.8066855   1.8088661
          583         584         585         586         587         588
    1   1.8205500   1.8233884   1.8321443   1.8355751   1.8455900   1.8489249
          589         590         591         592         593         594
    1   1.8505738   1.8569386   1.8724991   1.8857790   1.8926400   1.8983426
          595         596         597         598         599         600
    1   1.9082091   1.9241196   1.9383046   1.9399742   1.9401097   1.9478903
          601         602         603         604         605         606
    1   1.9498018   1.9577514   1.9686580   1.9692108   1.9701573   1.9890398
          607         608         609         610         611         612
    1   1.9955998   1.9959053   2.0015544   2.0099537   2.0101069   2.0202624
          613         614         615         616         617         618
    1   2.0208385   2.0290027   2.0398417   2.0474074   2.0519881   2.0553411
          619         620         621         622         623         624
    1   2.0579778   2.0618352   2.0726667   2.0728950   2.0748732   2.0796938
          625         626         627         628         629         630
    1   2.0814787   2.0893639   2.0949117   2.0990352   2.1023162   2.1031756
          631         632         633         634         635         636
    1   2.1065099   2.1167156   2.1193114   2.1272050   2.1298220   2.1322039
          637         638         639         640         641         642
    1   2.1328987   2.1380031   2.1504357   2.1586139   2.1684523   2.1687242
          643         644         645         646         647         648
    1   2.1757109   2.1837779   2.1844657   2.1981664   2.1990971   2.2001670
          649         650         651         652         653         654
    1   2.2107339   2.2118462   2.2146378   2.2148919   2.2253727   2.2303971
          655         656         657         658         659         660
    1   2.2365456   2.2424193   2.2471881   2.2473564   2.2518738   2.2578138
          661         662         663         664         665         666
    1   2.2682508   2.2706306   2.2792515   2.2804145   2.2814468   2.2860621
          667         668         669         670         671         672
    1   2.2917462   2.2978735   2.3001862   2.3031802   2.3034193   2.3107167
          673         674         675         676         677         678
    1   2.3111438   2.3131697   2.3144031   2.3163831   2.3170409   2.3180909
          679         680         681         682         683         684
    1   2.3226196   2.3322952   2.3435380   2.3564687   2.3631485   2.3725240
          685         686         687         688         689         690
    1   2.3819883   2.3905955   2.3919558   2.3937347   2.3942596   2.3976637
          691         692         693         694         695         696
    1   2.4038407   2.4039427   2.4064389   2.4086146   2.4172748   2.4198615
          697         698         699         700         701         702
    1   2.4229199   2.4261174   2.4363257   2.4440301   2.4477305   2.4673398
          703         704         705         706         707         708
    1   2.4700680   2.4777839   2.4873327   2.5036258   2.5053242   2.5166550
          709         710         711         712         713         714
    1   2.5177963   2.5266837   2.5268921   2.5286006   2.5327697   2.5345166
          715         716         717         718         719         720
    1   2.5455892   2.5465317   2.5488720   2.5517662   2.5523362   2.5586122
          721         722         723         724         725         726
    1   2.5640875   2.5675108   2.5703090   2.5818603   2.5866146   2.5928997
          727         728         729         730         731         732
    1   2.5945588   2.5988774   2.6069689   2.6098881   2.6100525   2.6135412
          733         734         735         736         737         738
    1   2.6203667   2.6246242   2.6255565   2.6269542   2.6327397   2.6388029
          739         740         741         742         743         744
    1   2.6402928   2.6486221   2.6510925   2.6605122   2.6605426   2.6606181
          745         746         747         748         749         750
    1   2.6638752   2.6713285   2.6904498   2.6921836   2.7050325   2.7067512
          751         752         753         754         755         756
    1   2.7095224   2.7100376   2.7108170   2.7172401   2.7177447   2.7262528
          757         758         759         760         761         762
    1   2.7390183   2.7574573   2.7616287   2.7626249   2.7674534   2.8104392
          763         764         765         766         767         768
    1   2.8117679   2.8144246   2.8146041   2.8313487   2.8314802   2.8317318
          769         770         771         772         773         774
    1   2.8433833   2.8625125   2.8662224   2.8714688   2.8777046   2.8962775
          775         776         777         778         779         780
    1   2.9001203   2.9070396   2.9181497   2.9445316   2.9512180   2.9541904
          781         782         783         784         785         786
    1   2.9571356   2.9578769   2.9644287   2.9776632   2.9795266   2.9821938
          787         788         789         790         791         792
    1   2.9837395   2.9874614   2.9877651   2.9927242   3.0001620   3.0192281
          793         794         795         796         797         798
    1   3.0262541   3.0381155   3.0417425   3.0438643   3.0657734   3.0811081
          799         800         801         802         803         804
    1   3.0872445   3.0885201   3.0921829   3.1064919   3.1087397   3.1181603
          805         806         807         808         809         810
    1   3.1182641   3.1217793   3.1244210   3.1309814   3.1443603   3.1583705
          811         812         813         814         815         816
    1   3.1637192   3.1790576   3.1850431   3.1856734   3.1863437   3.1923316
          817         818         819         820         821         822
    1   3.1942386   3.1989992   3.2014820   3.2182939   3.2434332   3.2456805
          823         824         825         826         827         828
    1   3.2559125   3.2567504   3.2684361   3.2712566   3.2759098   3.2826623
          829         830         831         832         833         834
    1   3.2921026   3.3364159   3.3378482   3.3446154   3.3520616   3.3652908
          835         836         837         838         839         840
    1   3.3883311   3.3960774   3.4176063   3.4196404   3.4414643   3.4757574
          841         842         843         844         845         846
    1   3.4935796   3.5153324   3.5237158   3.5238742   3.5261076   3.5546095
          847         848         849         850         851         852
    1   3.6232725   3.6361671   3.6644375   3.6703280   3.6851396   3.7121415
          853         854         855         856         857         858
    1   3.7484552   3.7746952   3.8196432   3.8588075   3.8621397   3.9270006
          859         860         861         862         863         864
    1   3.9353056   3.9676653   4.2101014   4.2138094   4.3301212   4.3388116
          865         866         867         868         869         870
    1   4.4655080   4.4921484   4.5050509   4.5089071   4.5101176   4.5168439
          871         872         873         874         875         876
    1   4.5172564   4.5242916   4.5325338   4.5392933   4.5428807   4.5457851
          877         878         879         880         881         882
    1   4.5599047   4.5623997   4.5655651   4.5688747   4.5796719   4.5921579
          883         884         885         886         887         888
    1   4.6120846   4.6246168   4.6359165   4.6377214   4.6529360   4.6773673
          889         890         891         892         893         894
    1   4.6951534   4.7132591   4.7167347   4.7245706   4.7310127   4.7405464
          895         896         897         898         899         900
    1   4.7615045   4.7690301   4.8217156   4.8619293   4.8864204   4.8965042
          901         902         903         904         905         906
    1   4.8971128   4.9063534   4.9484311   4.9743835   4.9752481   4.9821546
          907         908         909         910         911         912
    1   4.9822716   4.9948103   5.0393728   5.0598354   5.1439564   5.1467215
          913         914         915         916         917         918
    1   5.2130459   5.2493904   5.2501524   5.3154324   5.3732724   5.4159226
 SCF time:   CPU 2545.40s  wall 2550.00s 
 SCF   energy in the final basis set =    -2157.6082970460
 Total energy in the final basis set =    -2157.6082970460
  
     ##========================================##
     ||                                        ||
     ||              R A S M A N 2             ||
     ||________________________________________||
     ||                                        ||
     ||  Author:                               ||
     ||                                        ||
     ||        David Casanova (2010)           ||
     ||                                        ||
     ##========================================##
  
Setting single-point xc-functionals (if necessary)

  ***************************************************
  *  RAS-CI Dimensions:                             *
  *                                                 *
  *  Active Elec.:   4 ( 3, 1)   Active Orb.:   4   *
  *  Doubly Occ. : 182           Doubly Vir.: 732   *
  *  Frozen Occ. :  58           Frozen Vir.:   0   *
  *                                                 *
  *  Total CI configurations:     23984             * 
  *    Active configurations:        16             * 
  *      Hole configurations:      3472             * 
  *  Particle configurations:     20496             * 
  *                                                 *
  *   Requested states:       20                    *
  *  Spin multiplicity: Any multiplicity            *
  *                                                 *
  ***************************************************
-----------------------------------------
    Memory requirements of RASCI

 Each CI-vector requires      0.18 MiB 
 Max. subspace vectors           2000      

 Reduced Lists                0.00 MiB 
 Excitation Lists             0.00 MiB 
 Excitation Lists Sign        0.00 MiB 
 CI-space (Max)             400.16 MiB 
 Integrals                  162.73 MiB 
 Memory required (Max)      400.16 MiB 
 Memory available          2861.02 MiB 

    Disk requirements of RASCI

 Fock matrix                 12.86 MiB 
 2-electron integrals       292.14 MiB 
 CI-space                   731.93 MiB 
 Disk required             1036.93 MiB 
-----------------------------------------
  
RAS1 HF-like energy:          -2156.2277288223
 Computing integrals
 Computing J and K matrices
 Computing addressing
 Making amplitude guesses
 
Direct CI diagonalization
 ---------------------------------------------------
 Iter    Rts Conv    Rts Left    Ttl Dev     Max Dev
 ---------------------------------------------------
   1         0          20      0.009672    0.000756
   2         0          20      0.006050    0.000395
   3         0          20      0.005034    0.000428
   4         0          20      0.004409    0.000568
   5         0          20      0.004171    0.000530
   6         0          20      0.003629    0.000457
   7         0          20      0.002862    0.000267
   8         0          20      0.001976    0.000242
   9         0          20      0.001439    0.000175
  10         1          19      0.000954    0.000125
  11         1          19      0.000624    0.000085
  12         3          17      0.000376    0.000048
  13         3          17      0.000216    0.000029
  14         7          13      0.000124    0.000018
  15         7          13      0.000070    0.000009
  16         9          11      0.000039    0.000005
  17        12           8      0.000022    0.000003
  18        15           5      0.000013    0.000002
  19        20           0      0.000009    0.000001    Roots Converged
 ---------------------------------------------------
   
**************************************************
 RAS-CI total energy for state   1:  -2157.678997893808
  Excitation energy (eV) =  0.000000000000
  State symmetry: B1    (C2v      )
  <S^2>      :  2.0000
  Dipole Moment:   -0.0000 X     0.0000 Y     0.2630 Z
 NATURAL OCCUPATION NUMBERS (higher than 1.0E-05)
            1           2           3           4           5           6
    1   2.0000000   2.0000000   2.0000000   2.0000000   2.0000000   2.0000000
            7           8           9          10          11          12
    1   2.0000000   2.0000000   2.0000000   2.0000000   2.0000000   2.0000000
           13          14          15          16          17          18
    1   2.0000000   2.0000000   2.0000000   2.0000000   2.0000000   2.0000000
           19          20          21          22          23          24
    1   2.0000000   2.0000000   2.0000000   2.0000000   2.0000000   2.0000000
           25          26          27          28          29          30
    1   2.0000000   2.0000000   2.0000000   2.0000000   2.0000000   2.0000000
           31          32          33          34          35          36
    1   2.0000000   2.0000000   2.0000000   2.0000000   2.0000000   2.0000000
           37          38          39          40          41          42
    1   2.0000000   2.0000000   2.0000000   2.0000000   2.0000000   2.0000000
           43          44          45          46          47          48
    1   2.0000000   2.0000000   2.0000000   2.0000000   2.0000000   2.0000000
           49          50          51          52          53          54
    1   2.0000000   2.0000000   2.0000000   2.0000000   2.0000000   2.0000000
           55          56          57          58          59          60
    1   2.0000000   2.0000000   2.0000000   2.0000000   2.0000000   2.0000000
           61          62          63          64          65          66
    1   2.0000000   2.0000000   2.0000000   2.0000000   2.0000000   2.0000000
           67          68          69          70          71          72
    1   2.0000000   2.0000000   2.0000000   2.0000000   2.0000000   2.0000000
           73          74          75          76          77          78
    1   2.0000000   2.0000000   2.0000000   2.0000000   2.0000000   2.0000000
           79          80          81          82          83          84
    1   2.0000000   2.0000000   2.0000000   2.0000000   2.0000000   2.0000000
           85          86          87          88          89          90
    1   2.0000000   2.0000000   2.0000000   2.0000000   2.0000000   2.0000000
           91          92          93          94          95          96
    1   2.0000000   2.0000000   2.0000000   2.0000000   2.0000000   2.0000000
           97          98          99         100         101         102
    1   2.0000000   2.0000000   2.0000000   2.0000000   2.0000000   2.0000000
          103         104         105         106         107         108
    1   2.0000000   2.0000000   2.0000000   2.0000000   2.0000000   2.0000000
          109         110         111         112         113         114
    1   2.0000000   2.0000000   2.0000000   2.0000000   2.0000000   2.0000000
          115         116         117         118         119         120
    1   2.0000000   2.0000000   2.0000000   2.0000000   2.0000000   2.0000000
          121         122         123         124         125         126
    1   2.0000000   2.0000000   2.0000000   2.0000000   2.0000000   2.0000000
          127         128         129         130         131         132
    1   2.0000000   2.0000000   2.0000000   2.0000000   2.0000000   2.0000000
          133         134         135         136         137         138
    1   2.0000000   2.0000000   2.0000000   2.0000000   2.0000000   2.0000000
          139         140         141         142         143         144
    1   2.0000000   2.0000000   2.0000000   2.0000000   2.0000000   2.0000000
          145         146         147         148         149         150
    1   2.0000000   2.0000000   2.0000000   2.0000000   2.0000000   2.0000000
          151         152         153         154         155         156
    1   2.0000000   2.0000000   2.0000000   2.0000000   2.0000000   2.0000000
          157         158         159         160         161         162
    1   2.0000000   2.0000000   2.0000000   2.0000000   2.0000000   2.0000000
          163         164         165         166         167         168
    1   2.0000000   1.9999999   1.9999998   1.9999995   1.9999993   1.9999988
          169         170         171         172         173         174
    1   1.9999980   1.9999872   1.9999756   1.9999610   1.9999436   1.9999167
          175         176         177         178         179         180
    1   1.9997609   1.9997060   1.9995763   1.9989315   1.9978761   1.9972582
          181         182         183         184         185         186
    1   1.9933434   1.9922335   1.9653293   1.0027414   0.9951831   0.0444874
          187         188         189         190         191         192
    1   0.0069586   0.0016362   0.0016037   0.0011459   0.0011104   0.0005501
          193         194         195         196         197
    1   0.0003098   0.0002590   0.0001273   0.0000531   0.0000189
Natural Orbitals stored in FCHK

  Amplitudes : 
  
 | HOLE  | ALPHA | BETA  | PART  |    AMPLITUDE 
--------------------------------------------------
 |       | 1110  | 1000  |       |     9.6109564673580E-01
--------------------------------------------------
*** Contributions RASCI wfn    Active:  93.36
                                 Hole:   3.93
                                 Part:   2.70

      Mulliken population analysis 
 ---------------------------------------------------
   Atom    Charge (a.u.)   Spin (a.u.)  
 ---------------------------------------------------
   1  H    0.189927       -0.000000 
   2  H    0.188864       -0.000000 
   3  H    0.207849       -0.000000 
   4  H    0.207302       -0.000000 
   5  H    0.206886       -0.000000 
   6  H    0.205749       -0.000000 
   7  H    0.223538       -0.000000 
   8  H    0.220207       -0.000000 
   9  H    0.233611       -0.000000 
  10  H    0.233180       -0.000000 
  11  H    0.233611       -0.000000 
  12  H    0.233180       -0.000000 
  13  H    0.223538       -0.000000 
  14  H    0.220207       -0.000000 
  15  H    0.206886       -0.000000 
  16  H    0.205749       -0.000000 
  17  H    0.207849       -0.000000 
  18  H    0.207302       -0.000000 
  19  H    0.189927       -0.000000 
  20  H    0.188864       -0.000000 
  21  B    0.315212        0.132520 
  22  B    0.239263        0.184594 
  23  B    0.239263        0.184594 
  24  B    0.315212        0.132520 
  25  H    0.196283       -0.000000 
  26  H    0.195428       -0.000000 
  27  C   -0.131570        0.015362 
  28  C   -0.127495        0.010735 
  29  C   -0.284600        0.038998 
  30  C   -0.176639        0.048135 
  31  C   -0.284407        0.060075 
  32  C    0.072491        0.015719 
  33  C    0.077098        0.000266 
  34  C   -0.217227       -0.000014 
  35  C   -0.165838        0.049941 
  36  C   -0.159692        0.061694 
  37  C   -0.207082        0.001859 
  38  C   -0.170944        0.006831 
  39  C   -0.089802        0.079635 
  40  C   -0.086276        0.035794 
  41  C   -0.177155       -0.002888 
  42  C   -0.014403        0.008372 
  43  C    0.000765        0.008108 
  44  C   -0.227626        0.106976 
  45  C   -0.037323        0.055031 
  46  C   -0.230402        0.020376 
  47  C   -0.025803        0.033147 
  48  C   -0.026044        0.017150 
  49  C    0.046219        0.005375 
  50  C    0.054242       -0.005314 
  51  C   -0.201600        0.001991 
  52  C   -0.075678        0.010626 
  53  C   -0.196507       -0.001095 
  54  C   -0.201600        0.001991 
  55  C   -0.075678        0.010626 
  56  C   -0.196507       -0.001095 
  57  C    0.046219        0.005375 
  58  C    0.054242       -0.005314 
  59  C   -0.025803        0.033147 
  60  C   -0.026044        0.017150 
  61  C   -0.227626        0.106976 
  62  C   -0.037323        0.055031 
  63  C   -0.230402        0.020376 
  64  C   -0.014403        0.008372 
  65  C    0.000765        0.008108 
  66  C   -0.170944        0.006831 
  67  C   -0.089802        0.079635 
  68  C   -0.086276        0.035794 
  69  C   -0.177155       -0.002888 
  70  C   -0.217227       -0.000014 
  71  C   -0.165838        0.049941 
  72  C   -0.159692        0.061694 
  73  C   -0.207082        0.001859 
  74  C    0.072491        0.015719 
  75  C    0.077098        0.000266 
  76  C   -0.284600        0.038998 
  77  C   -0.176639        0.048135 
  78  C   -0.284407        0.060075 
  79  C   -0.131570        0.015362 
  80  C   -0.127495        0.010735 
  81  H    0.196283       -0.000000 
  82  H    0.195428       -0.000000 
 ---------------------------------------------------
   Sum:    0.000000        2.000000 
 ---------------------------------------------------
 
  
 NATURAL OCCUPATION NUMBERS (higher than 1.0E-05)
            1           2           3           4           5           6
    1   2.0000000   2.0000000   2.0000000   2.0000000   2.0000000   2.0000000
            7           8           9          10          11          12
    1   2.0000000   2.0000000   2.0000000   2.0000000   2.0000000   2.0000000
           13          14          15          16          17          18
    1   2.0000000   2.0000000   2.0000000   2.0000000   2.0000000   2.0000000
           19          20          21          22          23          24
    1   2.0000000   2.0000000   2.0000000   2.0000000   2.0000000   2.0000000
           25          26          27          28          29          30
    1   2.0000000   2.0000000   2.0000000   2.0000000   2.0000000   2.0000000
           31          32          33          34          35          36
    1   2.0000000   2.0000000   2.0000000   2.0000000   2.0000000   2.0000000
           37          38          39          40          41          42
    1   2.0000000   2.0000000   2.0000000   2.0000000   2.0000000   2.0000000
           43          44          45          46          47          48
    1   2.0000000   2.0000000   2.0000000   2.0000000   2.0000000   2.0000000
           49          50          51          52          53          54
    1   2.0000000   2.0000000   2.0000000   2.0000000   2.0000000   2.0000000
           55          56          57          58          59          60
    1   2.0000000   2.0000000   2.0000000   2.0000000   2.0000000   2.0000000
           61          62          63          64          65          66
    1   2.0000000   2.0000000   2.0000000   2.0000000   2.0000000   2.0000000
           67          68          69          70          71          72
    1   2.0000000   2.0000000   2.0000000   2.0000000   2.0000000   2.0000000
           73          74          75          76          77          78
    1   2.0000000   2.0000000   2.0000000   2.0000000   2.0000000   2.0000000
           79          80          81          82          83          84
    1   2.0000000   2.0000000   2.0000000   2.0000000   2.0000000   2.0000000
           85          86          87          88          89          90
    1   2.0000000   2.0000000   2.0000000   2.0000000   2.0000000   2.0000000
           91          92          93          94          95          96
    1   2.0000000   2.0000000   2.0000000   2.0000000   2.0000000   2.0000000
           97          98          99         100         101         102
    1   2.0000000   2.0000000   2.0000000   2.0000000   2.0000000   2.0000000
          103         104         105         106         107         108
    1   2.0000000   2.0000000   2.0000000   2.0000000   2.0000000   2.0000000
          109         110         111         112         113         114
    1   2.0000000   2.0000000   2.0000000   2.0000000   2.0000000   2.0000000
          115         116         117         118         119         120
    1   2.0000000   2.0000000   2.0000000   2.0000000   2.0000000   2.0000000
          121         122         123         124         125         126
    1   2.0000000   2.0000000   2.0000000   2.0000000   2.0000000   2.0000000
          127         128         129         130         131         132
    1   2.0000000   2.0000000   2.0000000   2.0000000   2.0000000   2.0000000
          133         134         135         136         137         138
    1   2.0000000   2.0000000   2.0000000   2.0000000   2.0000000   2.0000000
          139         140         141         142         143         144
    1   2.0000000   2.0000000   2.0000000   2.0000000   2.0000000   2.0000000
          145         146         147         148         149         150
    1   2.0000000   2.0000000   2.0000000   2.0000000   2.0000000   2.0000000
          151         152         153         154         155         156
    1   2.0000000   2.0000000   2.0000000   2.0000000   2.0000000   2.0000000
          157         158         159         160         161         162
    1   2.0000000   2.0000000   2.0000000   2.0000000   2.0000000   2.0000000
          163         164         165         166         167         168
    1   2.0000000   1.9999999   1.9999998   1.9999995   1.9999993   1.9999988
          169         170         171         172         173         174
    1   1.9999980   1.9999872   1.9999756   1.9999610   1.9999436   1.9999167
          175         176         177         178         179         180
    1   1.9997609   1.9997060   1.9995763   1.9989315   1.9978761   1.9972582
          181         182         183         184         185         186
    1   1.9933434   1.9922335   1.9653293   1.0027414   0.9951831   0.0444874
          187         188         189         190         191         192
    1   0.0069586   0.0016362   0.0016037   0.0011459   0.0011104   0.0005501
          193         194         195         196         197
    1   0.0003098   0.0002590   0.0001273   0.0000531   0.0000189
  
*** Unpaired Electrons
 Yamaguchi Nd:         2.23
 Head-Gordon Nu:       2.11
 Head-Gordon Nu_nl:    2.01
  
**************************************************
 RAS-CI total energy for state   2:  -2157.651740940437
  Excitation energy (eV) =  0.741699437696
  State symmetry: B1    (C2v      )
  <S^2>      :  2.0000
  Dipole Moment:   -0.0000 X     0.0000 Y    -0.0471 Z
  Trans. Moment:    0.0000 X     0.0000 Y     1.0139 Z
  Strength   :  0.018680
  Natural transition orbitals ( 1 -> 2 ):
   e-/hole pair  1 alpha:  ampl =  0.857256 ( 73.5%)   [4 : 5]
   e-/hole pair  2 alpha:  ampl =  0.284464 (  8.1%)   [3 : 6]
   e-/hole pair  1 beta :  ampl =  0.157491 (  2.5%)   [4 : 5]
   e-/hole pair  2 beta :  ampl =  0.147737 (  2.2%)   [3 : 6]
   Sum of square amplitudes: 0.88

 NATURAL OCCUPATION NUMBERS (higher than 1.0E-05)
            1           2           3           4           5           6
    1   2.0000000   2.0000000   2.0000000   2.0000000   2.0000000   2.0000000
            7           8           9          10          11          12
    1   2.0000000   2.0000000   2.0000000   2.0000000   2.0000000   2.0000000
           13          14          15          16          17          18
    1   2.0000000   2.0000000   2.0000000   2.0000000   2.0000000   2.0000000
           19          20          21          22          23          24
    1   2.0000000   2.0000000   2.0000000   2.0000000   2.0000000   2.0000000
           25          26          27          28          29          30
    1   2.0000000   2.0000000   2.0000000   2.0000000   2.0000000   2.0000000
           31          32          33          34          35          36
    1   2.0000000   2.0000000   2.0000000   2.0000000   2.0000000   2.0000000
           37          38          39          40          41          42
    1   2.0000000   2.0000000   2.0000000   2.0000000   2.0000000   2.0000000
           43          44          45          46          47          48
    1   2.0000000   2.0000000   2.0000000   2.0000000   2.0000000   2.0000000
           49          50          51          52          53          54
    1   2.0000000   2.0000000   2.0000000   2.0000000   2.0000000   2.0000000
           55          56          57          58          59          60
    1   2.0000000   2.0000000   2.0000000   2.0000000   2.0000000   2.0000000
           61          62          63          64          65          66
    1   2.0000000   2.0000000   2.0000000   2.0000000   2.0000000   2.0000000
           67          68          69          70          71          72
    1   2.0000000   2.0000000   2.0000000   2.0000000   2.0000000   2.0000000
           73          74          75          76          77          78
    1   2.0000000   2.0000000   2.0000000   2.0000000   2.0000000   2.0000000
           79          80          81          82          83          84
    1   2.0000000   2.0000000   2.0000000   2.0000000   2.0000000   2.0000000
           85          86          87          88          89          90
    1   2.0000000   2.0000000   2.0000000   2.0000000   2.0000000   2.0000000
           91          92          93          94          95          96
    1   2.0000000   2.0000000   2.0000000   2.0000000   2.0000000   2.0000000
           97          98          99         100         101         102
    1   2.0000000   2.0000000   2.0000000   2.0000000   2.0000000   2.0000000
          103         104         105         106         107         108
    1   2.0000000   2.0000000   2.0000000   2.0000000   2.0000000   2.0000000
          109         110         111         112         113         114
    1   2.0000000   2.0000000   2.0000000   2.0000000   2.0000000   2.0000000
          115         116         117         118         119         120
    1   2.0000000   2.0000000   2.0000000   2.0000000   2.0000000   2.0000000
          121         122         123         124         125         126
    1   2.0000000   2.0000000   2.0000000   2.0000000   2.0000000   2.0000000
          127         128         129         130         131         132
    1   2.0000000   2.0000000   2.0000000   2.0000000   2.0000000   2.0000000
          133         134         135         136         137         138
    1   2.0000000   2.0000000   2.0000000   2.0000000   2.0000000   2.0000000
          139         140         141         142         143         144
    1   2.0000000   2.0000000   2.0000000   2.0000000   2.0000000   2.0000000
          145         146         147         148         149         150
    1   2.0000000   2.0000000   2.0000000   2.0000000   2.0000000   2.0000000
          151         152         153         154         155         156
    1   2.0000000   2.0000000   2.0000000   2.0000000   2.0000000   2.0000000
          157         158         159         160         161         162
    1   2.0000000   2.0000000   2.0000000   2.0000000   1.9999999   1.9999999
          163         164         165         166         167         168
    1   1.9999998   1.9999996   1.9999979   1.9999965   1.9999911   1.9999888
          169         170         171         172         173         174
    1   1.9999443   1.9999106   1.9998990   1.9998102   1.9997259   1.9995243
          175         176         177         178         179         180
    1   1.9993739   1.9992715   1.9991029   1.9986541   1.9972783   1.9948462
          181         182         183         184         185         186
    1   1.9833845   1.9600229   1.9011733   0.9214671   0.8989478   0.2446551
          187         188         189         190         191         192
    1   0.0943832   0.0024678   0.0015357   0.0015238   0.0006774   0.0006468
          193         194         195         196         197         198
    1   0.0006100   0.0003852   0.0003450   0.0001423   0.0001245   0.0000668
          199         200         201         202
    1   0.0000531   0.0000298   0.0000212   0.0000108
Natural Orbitals stored in FCHK

  Amplitudes : 
  
 | HOLE  | ALPHA | BETA  | PART  |    AMPLITUDE 
--------------------------------------------------
 |       | 1110  | 0100  |       |    -1.3277936054968E-01
 |       | 1101  | 1000  |       |     8.6873224292325E-01
 |       | 1011  | 0001  |       |    -1.0299109549745E-01
 |       | 0111  | 0010  |       |     1.1022758888552E-01
 | 182   | 1110  | 1010  |       |     1.0168168364918E-01
 |       | 1010  | 1000  | 187   |    -2.8676423768449E-01
--------------------------------------------------
*** Contributions RASCI wfn    Active:  79.74
                                 Hole:   8.53
                                 Part:  11.73

      Mulliken population analysis 
 ---------------------------------------------------
   Atom    Charge (a.u.)   Spin (a.u.)  
 ---------------------------------------------------
   1  H    0.189927       -0.000000 
   2  H    0.188864       -0.000000 
   3  H    0.207849       -0.000000 
   4  H    0.207302       -0.000000 
   5  H    0.206886       -0.000000 
   6  H    0.205749       -0.000000 
   7  H    0.223538       -0.000000 
   8  H    0.220207       -0.000000 
   9  H    0.233611       -0.000000 
  10  H    0.233180       -0.000000 
  11  H    0.233611       -0.000000 
  12  H    0.233180       -0.000000 
  13  H    0.223538       -0.000000 
  14  H    0.220207       -0.000000 
  15  H    0.206886       -0.000000 
  16  H    0.205749       -0.000000 
  17  H    0.207849       -0.000000 
  18  H    0.207302       -0.000000 
  19  H    0.189927       -0.000000 
  20  H    0.188864       -0.000000 
  21  B    0.359837        0.059333 
  22  B    0.304429        0.108520 
  23  B    0.304429        0.108520 
  24  B    0.359837        0.059333 
  25  H    0.196283       -0.000000 
  26  H    0.195428       -0.000000 
  27  C   -0.144485        0.019694 
  28  C   -0.154470        0.037110 
  29  C   -0.268471        0.011930 
  30  C   -0.167408        0.015435 
  31  C   -0.263172        0.023775 
  32  C    0.044263        0.029988 
  33  C    0.054169        0.037285 
  34  C   -0.219221        0.001867 
  35  C   -0.145806        0.023110 
  36  C   -0.141177        0.032670 
  37  C   -0.210316        0.002759 
  38  C   -0.186346        0.016412 
  39  C   -0.070166        0.043570 
  40  C   -0.101470        0.064034 
  41  C   -0.182969        0.016475 
  42  C   -0.018543        0.007095 
  43  C   -0.006268        0.013956 
  44  C   -0.220284        0.089374 
  45  C   -0.038668        0.041664 
  46  C   -0.245185        0.099677 
  47  C   -0.022098        0.021713 
  48  C   -0.022184        0.043365 
  49  C    0.022550        0.035590 
  50  C    0.022975        0.049885 
  51  C   -0.215208        0.019889 
  52  C   -0.062588        0.007900 
  53  C   -0.210541        0.025926 
  54  C   -0.215208        0.019889 
  55  C   -0.062588        0.007900 
  56  C   -0.210541        0.025926 
  57  C    0.022550        0.035590 
  58  C    0.022975        0.049885 
  59  C   -0.022098        0.021713 
  60  C   -0.022184        0.043365 
  61  C   -0.220284        0.089374 
  62  C   -0.038668        0.041664 
  63  C   -0.245185        0.099677 
  64  C   -0.018543        0.007095 
  65  C   -0.006268        0.013956 
  66  C   -0.186346        0.016412 
  67  C   -0.070166        0.043570 
  68  C   -0.101470        0.064034 
  69  C   -0.182969        0.016475 
  70  C   -0.219221        0.001867 
  71  C   -0.145806        0.023110 
  72  C   -0.141177        0.032670 
  73  C   -0.210316        0.002759 
  74  C    0.044263        0.029988 
  75  C    0.054169        0.037285 
  76  C   -0.268471        0.011930 
  77  C   -0.167408        0.015435 
  78  C   -0.263172        0.023775 
  79  C   -0.144485        0.019694 
  80  C   -0.154470        0.037110 
  81  H    0.196283       -0.000000 
  82  H    0.195428       -0.000000 
 ---------------------------------------------------
   Sum:   -0.000000        2.000000 
 ---------------------------------------------------
 
  
 NATURAL OCCUPATION NUMBERS (higher than 1.0E-05)
            1           2           3           4           5           6
    1   2.0000000   2.0000000   2.0000000   2.0000000   2.0000000   2.0000000
            7           8           9          10          11          12
    1   2.0000000   2.0000000   2.0000000   2.0000000   2.0000000   2.0000000
           13          14          15          16          17          18
    1   2.0000000   2.0000000   2.0000000   2.0000000   2.0000000   2.0000000
           19          20          21          22          23          24
    1   2.0000000   2.0000000   2.0000000   2.0000000   2.0000000   2.0000000
           25          26          27          28          29          30
    1   2.0000000   2.0000000   2.0000000   2.0000000   2.0000000   2.0000000
           31          32          33          34          35          36
    1   2.0000000   2.0000000   2.0000000   2.0000000   2.0000000   2.0000000
           37          38          39          40          41          42
    1   2.0000000   2.0000000   2.0000000   2.0000000   2.0000000   2.0000000
           43          44          45          46          47          48
    1   2.0000000   2.0000000   2.0000000   2.0000000   2.0000000   2.0000000
           49          50          51          52          53          54
    1   2.0000000   2.0000000   2.0000000   2.0000000   2.0000000   2.0000000
           55          56          57          58          59          60
    1   2.0000000   2.0000000   2.0000000   2.0000000   2.0000000   2.0000000
           61          62          63          64          65          66
    1   2.0000000   2.0000000   2.0000000   2.0000000   2.0000000   2.0000000
           67          68          69          70          71          72
    1   2.0000000   2.0000000   2.0000000   2.0000000   2.0000000   2.0000000
           73          74          75          76          77          78
    1   2.0000000   2.0000000   2.0000000   2.0000000   2.0000000   2.0000000
           79          80          81          82          83          84
    1   2.0000000   2.0000000   2.0000000   2.0000000   2.0000000   2.0000000
           85          86          87          88          89          90
    1   2.0000000   2.0000000   2.0000000   2.0000000   2.0000000   2.0000000
           91          92          93          94          95          96
    1   2.0000000   2.0000000   2.0000000   2.0000000   2.0000000   2.0000000
           97          98          99         100         101         102
    1   2.0000000   2.0000000   2.0000000   2.0000000   2.0000000   2.0000000
          103         104         105         106         107         108
    1   2.0000000   2.0000000   2.0000000   2.0000000   2.0000000   2.0000000
          109         110         111         112         113         114
    1   2.0000000   2.0000000   2.0000000   2.0000000   2.0000000   2.0000000
          115         116         117         118         119         120
    1   2.0000000   2.0000000   2.0000000   2.0000000   2.0000000   2.0000000
          121         122         123         124         125         126
    1   2.0000000   2.0000000   2.0000000   2.0000000   2.0000000   2.0000000
          127         128         129         130         131         132
    1   2.0000000   2.0000000   2.0000000   2.0000000   2.0000000   2.0000000
          133         134         135         136         137         138
    1   2.0000000   2.0000000   2.0000000   2.0000000   2.0000000   2.0000000
          139         140         141         142         143         144
    1   2.0000000   2.0000000   2.0000000   2.0000000   2.0000000   2.0000000
          145         146         147         148         149         150
    1   2.0000000   2.0000000   2.0000000   2.0000000   2.0000000   2.0000000
          151         152         153         154         155         156
    1   2.0000000   2.0000000   2.0000000   2.0000000   2.0000000   2.0000000
          157         158         159         160         161         162
    1   2.0000000   2.0000000   2.0000000   2.0000000   1.9999999   1.9999999
          163         164         165         166         167         168
    1   1.9999998   1.9999996   1.9999979   1.9999965   1.9999911   1.9999888
          169         170         171         172         173         174
    1   1.9999443   1.9999106   1.9998990   1.9998102   1.9997259   1.9995243
          175         176         177         178         179         180
    1   1.9993739   1.9992715   1.9991029   1.9986541   1.9972783   1.9948462
          181         182         183         184         185         186
    1   1.9833845   1.9600229   1.9011733   0.9214671   0.8989478   0.2446551
          187         188         189         190         191         192
    1   0.0943832   0.0024678   0.0015357   0.0015238   0.0006774   0.0006468
          193         194         195         196         197         198
    1   0.0006100   0.0003852   0.0003450   0.0001423   0.0001245   0.0000668
          199         200         201         202
    1   0.0000531   0.0000298   0.0000212   0.0000108
  
*** Unpaired Electrons
 Yamaguchi Nd:         2.93
 Head-Gordon Nu:       2.34
 Head-Gordon Nu_nl:    2.23
  
**************************************************
 RAS-CI total energy for state   3:  -2157.646125552067
  Excitation energy (eV) =  0.894501929602
  State symmetry: A1    (C2v      )
  <S^2>      :  2.0000
  Dipole Moment:    0.0000 X     0.0000 Y     0.2740 Z
  Trans. Moment:    1.1473 X    -0.0000 Y     0.0000 Z
  Strength   :  0.028846
  Natural transition orbitals ( 1 -> 3 ):
   e-/hole pair  1 alpha:  ampl =  0.846377 ( 71.6%)   [4 : 5]
   e-/hole pair  2 alpha:  ampl =  0.320425 ( 10.3%)   [3 : 6]
   e-/hole pair  1 beta :  ampl =  0.158908 (  2.5%)   [4 : 5]
   e-/hole pair  2 beta :  ampl =  0.091366 (  0.8%)   [3 : 6]
   Sum of square amplitudes: 0.87

 NATURAL OCCUPATION NUMBERS (higher than 1.0E-05)
            1           2           3           4           5           6
    1   2.0000000   2.0000000   2.0000000   2.0000000   2.0000000   2.0000000
            7           8           9          10          11          12
    1   2.0000000   2.0000000   2.0000000   2.0000000   2.0000000   2.0000000
           13          14          15          16          17          18
    1   2.0000000   2.0000000   2.0000000   2.0000000   2.0000000   2.0000000
           19          20          21          22          23          24
    1   2.0000000   2.0000000   2.0000000   2.0000000   2.0000000   2.0000000
           25          26          27          28          29          30
    1   2.0000000   2.0000000   2.0000000   2.0000000   2.0000000   2.0000000
           31          32          33          34          35          36
    1   2.0000000   2.0000000   2.0000000   2.0000000   2.0000000   2.0000000
           37          38          39          40          41          42
    1   2.0000000   2.0000000   2.0000000   2.0000000   2.0000000   2.0000000
           43          44          45          46          47          48
    1   2.0000000   2.0000000   2.0000000   2.0000000   2.0000000   2.0000000
           49          50          51          52          53          54
    1   2.0000000   2.0000000   2.0000000   2.0000000   2.0000000   2.0000000
           55          56          57          58          59          60
    1   2.0000000   2.0000000   2.0000000   2.0000000   2.0000000   2.0000000
           61          62          63          64          65          66
    1   2.0000000   2.0000000   2.0000000   2.0000000   2.0000000   2.0000000
           67          68          69          70          71          72
    1   2.0000000   2.0000000   2.0000000   2.0000000   2.0000000   2.0000000
           73          74          75          76          77          78
    1   2.0000000   2.0000000   2.0000000   2.0000000   2.0000000   2.0000000
           79          80          81          82          83          84
    1   2.0000000   2.0000000   2.0000000   2.0000000   2.0000000   2.0000000
           85          86          87          88          89          90
    1   2.0000000   2.0000000   2.0000000   2.0000000   2.0000000   2.0000000
           91          92          93          94          95          96
    1   2.0000000   2.0000000   2.0000000   2.0000000   2.0000000   2.0000000
           97          98          99         100         101         102
    1   2.0000000   2.0000000   2.0000000   2.0000000   2.0000000   2.0000000
          103         104         105         106         107         108
    1   2.0000000   2.0000000   2.0000000   2.0000000   2.0000000   2.0000000
[...]
   56   0.0002783   0.0095681   0.0092641   0.0003369  -0.0013357   0.0000270
   57   0.0165980  -0.0128170   0.0017859   0.0227861   0.0071290   0.0037289
   58   0.0018999  -0.0135317   0.0115833   0.0070440   0.0264764   0.0015822
   59   1.2165338   1.3308709   0.0063205  -0.0082836   0.0007649   0.0091446
   60   0.0057812   1.3171286   1.1935224   0.0008248  -0.0080661   0.0003426
   61   3.8571013  -0.0059633   0.0123250   1.4647754   0.0008576  -0.0029579
   62  -0.0059633   3.9016034  -0.0053152   0.0244027   0.0221178   0.0010047
   63   0.0123250  -0.0053152   3.8679252   0.0010477   1.5215125   0.0038142
   64   1.4647754   0.0244027   0.0010477   3.9532035   0.0006193   1.1593976
   65   0.0008576   0.0221178   1.5215125   0.0006193   3.9541768   0.0002713
   66  -0.0029579   0.0010047   0.0038142   1.1593976   0.0002713   3.8748856
   67   0.0090006  -0.0157292   0.0055026   1.2556790   0.0019560  -0.0106222
   68   0.0069971  -0.0152569   0.0090260   0.0020758   1.2229914   0.0036151
   69   0.0032550   0.0009839  -0.0054083   0.0002844   1.1394741   0.0006387
   70   0.0365104   0.0070767   0.0009657  -0.0049226   0.0000817   1.6863690
   71   0.0131727   0.0035425   0.0004749  -0.0011896   0.0005014   0.0353557
   72   0.0005844   0.0035628   0.0182654   0.0005635  -0.0015960   0.0016640
   73   0.0007799   0.0062873   0.0421789   0.0000669  -0.0052578   0.0001869
   74   0.0095885   0.0018778   0.0087999   0.0217882   0.0006787  -0.0018366
   75   0.0081312   0.0021074   0.0074861   0.0007814   0.0166387   0.0018922
   76   0.0130610   0.0003011   0.0016546   0.0001274   0.0002456   0.0216699
   77   0.0028180   0.0003520   0.0046957   0.0012446   0.0012179   0.0099932
   78   0.0010619   0.0002563   0.0197917   0.0002878  -0.0000840   0.0046107
   79   0.0083570   0.0003630   0.0045154   0.0067351   0.0006191   0.0020663
   80   0.0049969   0.0006146   0.0085733   0.0008261   0.0052477   0.0029924
   81  -0.0000015  -0.0000018   0.0000004  -0.0000200   0.0000386   0.0000726
   82   0.0000008  -0.0000024  -0.0000018   0.0000372  -0.0000184  -0.0000026
           67          68          69          70          71          72
    1  -0.0000000   0.0000000   0.0000000   0.0000000   0.0000000  -0.0000000
    2   0.0000000  -0.0000000  -0.0000000  -0.0000000  -0.0000000   0.0000000
    3  -0.0000000   0.0000000   0.0000000   0.0000000   0.0000000  -0.0000000
    4   0.0000000  -0.0000000  -0.0000000   0.0000000  -0.0000000   0.0000000
    5   0.0000001   0.0000000   0.0000000  -0.0000000  -0.0000000  -0.0000000
    6   0.0000000   0.0000001   0.0000001  -0.0000000  -0.0000000  -0.0000000
    7  -0.0000002   0.0000001   0.0000002   0.0000003  -0.0000000   0.0000000
    8   0.0000000  -0.0000001  -0.0000008   0.0000000   0.0000000  -0.0000001
    9   0.0000127   0.0000021   0.0000004  -0.0000020   0.0000010   0.0000009
   10   0.0000020   0.0000131   0.0000023  -0.0000002   0.0000010   0.0000011
   11  -0.0000624   0.0000103   0.0000030   0.0000320   0.0000564  -0.0000081
   12   0.0000101  -0.0000570   0.0000096  -0.0000002  -0.0000081   0.0000514
   13   0.0053443  -0.0000086   0.0000023  -0.0002271   0.0006559  -0.0000003
   14  -0.0000105   0.0055025   0.0019488  -0.0000005  -0.0000007   0.0006445
   15   0.0049655   0.0001446   0.0000061  -0.0115664  -0.0003496   0.0000091
   16   0.0001393   0.0049870   0.9356492  -0.0000002   0.0000093  -0.0003654
   17  -0.0003563   0.0000075  -0.0000004   0.9350039   0.0049459   0.0001449
   18   0.0000076  -0.0003631  -0.0124102   0.0000056   0.0001416   0.0049624
   19   0.0007123   0.0000017  -0.0000004   0.0014954   0.0047613  -0.0000171
   20   0.0000007   0.0007068  -0.0000844   0.0000016  -0.0000197   0.0050308
   21   0.0059073   0.0040726   0.0002274   0.0000843   0.0043321   0.0054271
   22   0.0099025   0.0065108   0.0003579   0.0001673   0.0066232   0.0080790
   23   1.0112319   1.0039441   0.0030320   0.0029124   0.0037040   0.0053354
   24   0.0126567   0.0213140   0.0013105   0.0034365   1.0146643   1.0190653
   25   0.0000000   0.0000000   0.0000000  -0.0000000  -0.0000000  -0.0000000
   26   0.0000000   0.0000000   0.0000000  -0.0000000  -0.0000000  -0.0000000
   27   0.0014629   0.0002001   0.0000058   0.0001284   0.0008501   0.0005344
   28   0.0002716   0.0008906   0.0001369   0.0000234   0.0003395   0.0008652
   29   0.0028399   0.0013218   0.0000406   0.0000791   0.0017950   0.0019769
   30   0.0019330   0.0013588   0.0000779   0.0000278   0.0014386   0.0018140
   31   0.0024951   0.0025189   0.0002127   0.0000132   0.0019979   0.0028286
   32   0.0013999   0.0001436   0.0000131   0.0001465   0.0008892   0.0004994
   33   0.0001407   0.0006176   0.0001018   0.0000331   0.0002260   0.0006710
   34   0.0001938   0.0000061   0.0000186   0.0000386   0.0000832   0.0000199
   35   0.0031292   0.0014669   0.0000462   0.0000832   0.0018993   0.0021275
   36   0.0027747   0.0026317   0.0002143   0.0000199   0.0021275   0.0028954
   37   0.0000093   0.0002605   0.0000605   0.0000218   0.0000463   0.0001931
   38   0.0005020   0.0000357   0.0000072   0.0000667   0.0003451   0.0001491
   39   0.0041307   0.0014414   0.0000205   0.0001938   0.0031292   0.0027747
   40   0.0014414   0.0019026   0.0001713   0.0000061   0.0014669   0.0026317
   41   0.0000205   0.0001713   0.0000306   0.0000186   0.0000462   0.0002143
   42   0.0013979   0.0000690   0.0000391   0.0001670   0.0006566   0.0003341
   43   0.0001912   0.0013174   0.0002503   0.0000537   0.0003666   0.0010417
   44   0.0058721   0.0019120   0.0000259   0.0003361   0.0046451   0.0036153
   45   0.0041150   0.0026876   0.0001864   0.0000976   0.0016602   0.0019732
   46   0.0017104   0.0022160   0.0001886   0.0000123   0.0016311   0.0033631
   47   0.0046676   0.0001444   0.0001400   0.0006104   0.0021091   0.0009133
   48   0.0004358   0.0040064   0.0007923   0.0002049   0.0009303   0.0030172
   49   0.0002191   0.0001403   0.0000340   0.0000214   0.0003369   0.0000658
   50   0.0007019   0.0006418   0.0001252   0.0001197   0.0000936   0.0000498
   51   0.0031514   0.0003588   0.0004606   0.0007578   0.0009327   0.0000259
   52   0.0020342   0.0014056   0.0000656   0.0001077   0.0017527   0.0022227
   53   0.0002278   0.0030608   0.0010850   0.0009652   0.0000403   0.0013275
   54   0.0008584   0.0000797   0.0000482  -0.0000093   0.0001083  -0.0000319
   55   0.0013306   0.0011611   0.0003506   0.0001429   0.0002558   0.0003268
   56   0.0002082   0.0012057   0.0004946   0.0001019   0.0000087  -0.0000495
   57   0.0112431   0.0014915   0.0011694   0.0033125   0.0037424   0.0001526
   58   0.0011711   0.0108412   0.0028709   0.0019285   0.0002051   0.0051640
   59   0.0185990   0.0021647   0.0003734   0.0015416   0.0007982   0.0009538
   60   0.0023420   0.0178932   0.0085974   0.0002199   0.0007896   0.0005722
   61   0.0090006   0.0069971   0.0032550   0.0365104   0.0131727   0.0005844
   62  -0.0157292  -0.0152569   0.0009839   0.0070767   0.0035425   0.0035628
   63   0.0055026   0.0090260  -0.0054083   0.0009657   0.0004749   0.0182654
   64   1.2556790   0.0020758   0.0002844  -0.0049226  -0.0011896   0.0005635
   65   0.0019560   1.2229914   1.1394741   0.0000817   0.0005014  -0.0015960
   66  -0.0106222   0.0036151   0.0006387   1.6863690   0.0353557   0.0016640
   67   3.9013800  -0.0168555   0.0025422   0.0257233   1.4523154   0.0083780
   68  -0.0168555   3.8986209  -0.0116298   0.0005627   0.0080655   1.4956409
   69   0.0025422  -0.0116298   3.8757087   0.0002203   0.0014471   0.0261121
   70   0.0257233   0.0005627   0.0002203   3.8735766  -0.0115501   0.0004107
   71   1.4523154   0.0080655   0.0014471  -0.0115501   3.9335562  -0.0195481
   72   0.0083780   1.4956409   0.0261121   0.0004107  -0.0195481   3.9338162
   73   0.0003757   0.0189278   1.7181447   0.0000669   0.0004000  -0.0121596
   74   0.0149984   0.0082902   0.0016739   1.1851218   1.3403344   0.0050360
   75   0.0059812   0.0144419  -0.0032014   0.0007168   0.0049834   1.2874716
   76   0.0125885   0.0000669   0.0051938  -0.0141648   0.0005089   0.0004050
   77   0.0016367   0.0015905   0.0129610   0.0008593  -0.0083878  -0.0080942
   78   0.0002496   0.0181942   0.0304122   0.0001778   0.0003337   0.0018359
   79   0.0116827   0.0026870   0.0021516   0.0140881   0.0311934   0.0034644
   80   0.0019719   0.0143367   0.0018787   0.0017007   0.0036477   0.0275228
   81   0.0000866   0.0002161  -0.0000022   0.0006034   0.0000033   0.0006736
   82   0.0002333   0.0000838   0.0000675   0.0000244   0.0006911   0.0000293
           73          74          75          76          77          78
    1  -0.0000000  -0.0000000   0.0000000   0.0000000   0.0000000   0.0000000
    2  -0.0000000   0.0000000  -0.0000000   0.0000000   0.0000000   0.0000000
    3   0.0000000  -0.0000000   0.0000000   0.0000000   0.0000000  -0.0000000
    4   0.0000000   0.0000000  -0.0000000  -0.0000000   0.0000000   0.0000000
    5  -0.0000000   0.0000000   0.0000000  -0.0000000   0.0000000  -0.0000000
    6  -0.0000000   0.0000000   0.0000000  -0.0000000   0.0000000  -0.0000000
    7   0.0000000  -0.0000001   0.0000000   0.0000000  -0.0000000  -0.0000000
    8   0.0000004  -0.0000000  -0.0000001  -0.0000000  -0.0000000   0.0000000
    9  -0.0000003   0.0000006   0.0000009   0.0000001  -0.0000000   0.0000000
   10  -0.0000020   0.0000009   0.0000007   0.0000000  -0.0000000   0.0000000
   11  -0.0000001  -0.0000140   0.0000027   0.0000006   0.0000017  -0.0000012
   12   0.0000318   0.0000027  -0.0000136  -0.0000011   0.0000017   0.0000007
   13  -0.0000005   0.0001105   0.0000003   0.0000354   0.0000140  -0.0000001
   14  -0.0002096   0.0000001   0.0001130  -0.0000002   0.0000136   0.0000329
   15  -0.0000002   0.0044620   0.0000001   0.0007745   0.0000092  -0.0000003
   16  -0.0115665  -0.0000001   0.0045458  -0.0000004   0.0000086   0.0007092
   17   0.0000058  -0.0124894   0.0000181   0.0012747   0.0000528   0.0000009
   18   0.9351957   0.0000164  -0.0126708   0.0000011   0.0000405   0.0012302
   19   0.0000014  -0.0145229  -0.0000083   0.9439492   0.0040357   0.0000704
   20   0.0015199  -0.0000060  -0.0139490   0.0000450   0.0037622   0.9442919
   21   0.0002279   0.0013291   0.0008550   0.0040429   0.0034568   0.0051954
   22   0.0003293   0.0023156   0.0012990   0.0061353   0.0051980   0.0076575
   23   0.0025815   0.0074453   0.0072414   0.0013615  -0.0001755   0.0016376
   24   0.0033786  -0.0139960  -0.0166019   0.0011534   1.0966064   0.0025763
   25  -0.0000000   0.0000000   0.0000000  -0.0000000  -0.0000000  -0.0000000
   26  -0.0000000   0.0000000   0.0000000  -0.0000000  -0.0000000  -0.0000000
   27   0.0000135   0.0006861   0.0000160   0.0007983   0.0004589   0.0004663
   28   0.0001773   0.0000142   0.0004007   0.0003124   0.0004206   0.0008822
   29   0.0000403   0.0008169   0.0002016   0.0017056   0.0013528   0.0018704
   30   0.0000802   0.0004318   0.0002913   0.0013528   0.0011620   0.0017515
   31   0.0002050   0.0004195   0.0006741   0.0018704   0.0017515   0.0027877
   32   0.0000262   0.0007055   0.0000268   0.0008169   0.0004318   0.0004195
   33   0.0001563   0.0000268   0.0003098   0.0002016   0.0002913   0.0006741
   34   0.0000218   0.0001465   0.0000331   0.0000791   0.0000278   0.0000132
   35   0.0000463   0.0008892   0.0002260   0.0017950   0.0014386   0.0019979
   36   0.0001931   0.0004994   0.0006710   0.0019769   0.0018140   0.0028286
   37   0.0000730   0.0000262   0.0001563   0.0000403   0.0000802   0.0002050
   38   0.0000190   0.0002820   0.0000153   0.0003108   0.0001451   0.0001205
   39   0.0000093   0.0013999   0.0001407   0.0028399   0.0019330   0.0024951
   40   0.0002605   0.0001436   0.0006176   0.0013218   0.0013588   0.0025189
   41   0.0000605   0.0000131   0.0001018   0.0000406   0.0000779   0.0002127
   42   0.0000442   0.0007736   0.0000580   0.0006177   0.0003131   0.0002699
   43   0.0002851   0.0000392   0.0006544   0.0003235   0.0004835   0.0010697
   44   0.0000018   0.0021191   0.0001548   0.0041332   0.0026563   0.0032215
   45   0.0001258   0.0010300   0.0005301   0.0016752   0.0015337   0.0020194
   46   0.0003603   0.0001531   0.0007532   0.0014757   0.0016199   0.0031589
   47   0.0001738   0.0026026   0.0002055   0.0019262   0.0008997   0.0007040
   48   0.0009242   0.0001545   0.0020205   0.0007901   0.0012798   0.0030139
   49   0.0000967   0.0000476   0.0000936   0.0001952   0.0000367   0.0000378
   50   0.0000207   0.0002994   0.0000934   0.0001190   0.0000749   0.0000500
   51   0.0010421   0.0028818   0.0009898   0.0006288   0.0000717   0.0000646
   52   0.0002202   0.0004331   0.0003012   0.0016836   0.0013708   0.0021766
   53   0.0010001   0.0011323   0.0024052   0.0000252   0.0002032   0.0011139
   54   0.0001023   0.0002081   0.0000493   0.0000526   0.0000067   0.0000013
   55   0.0001363   0.0004408   0.0003448   0.0001079   0.0000170   0.0001601
   56   0.0000034   0.0000681   0.0002565   0.0000774   0.0000661   0.0000402
   57   0.0019296   0.0077702   0.0023028   0.0027445   0.0004993   0.0000808
   58   0.0043170   0.0026741   0.0066122   0.0001271   0.0010092   0.0045050
   59   0.0002089   0.0041612   0.0003450   0.0001304   0.0000394   0.0000212
   60   0.0014086   0.0002893   0.0033396  -0.0000110   0.0000756   0.0001461
   61   0.0007799   0.0095885   0.0081312   0.0130610   0.0028180   0.0010619
   62   0.0062873   0.0018778   0.0021074   0.0003011   0.0003520   0.0002563
   63   0.0421789   0.0087999   0.0074861   0.0016546   0.0046957   0.0197917
   64   0.0000669   0.0217882   0.0007814   0.0001274   0.0012446   0.0002878
   65  -0.0052578   0.0006787   0.0166387   0.0002456   0.0012179  -0.0000840
   66   0.0001869  -0.0018366   0.0018922   0.0216699   0.0099932   0.0046107
   67   0.0003757   0.0149984   0.0059812   0.0125885   0.0016367   0.0002496
   68   0.0189278   0.0082902   0.0144419   0.0000669   0.0015905   0.0181942
   69   1.7181447   0.0016739  -0.0032014   0.0051938   0.0129610   0.0304122
   70   0.0000669   1.1851218   0.0007168  -0.0141648   0.0008593   0.0001778
   71   0.0004000   1.3403344   0.0049834   0.0005089  -0.0083878   0.0003337
   72  -0.0121596   0.0050360   1.2874716   0.0004050  -0.0080942   0.0018359
   73   3.8736316   0.0005682   1.1571373   0.0001677   0.0008954  -0.0146024
   74   0.0005682   3.9265810   0.0058915   1.2647746   0.0319086   0.0112444
   75   1.1571373   0.0058915   3.9300489   0.0140396   0.0430513   1.3623577
   76   0.0001677   1.2647746   0.0140396   3.8604326  -0.0028223   0.0023314
   77   0.0008954   0.0319086   0.0430513  -0.0028223   3.9113935  -0.0037235
   78  -0.0146024   0.0112444   1.3623577   0.0023314  -0.0037235   3.8581768
   79   0.0013005  -0.0049929   0.0066737   1.5287412   1.2988684   0.0263510
   80   0.0122599   0.0083215  -0.0065187   0.0360329   1.4031220   1.4083113
   81   0.0000228   0.0039583   0.0001000  -0.0153082  -0.0095452  -0.0002065
   82   0.0006083   0.0001221   0.0036608  -0.0002394  -0.0092747  -0.0155147
           79          80          81          82
    1  -0.0000000  -0.0000000  -0.0000000  -0.0000000
    2  -0.0000000  -0.0000000  -0.0000000   0.0000000
    3  -0.0000000   0.0000000  -0.0000000   0.0000000
    4   0.0000000  -0.0000000   0.0000000  -0.0000000
    5   0.0000000   0.0000000   0.0000000   0.0000000
    6   0.0000000   0.0000000   0.0000000   0.0000000
    7  -0.0000000   0.0000000  -0.0000000   0.0000000
    8   0.0000000  -0.0000000   0.0000000  -0.0000000
    9  -0.0000001  -0.0000000   0.0000000   0.0000000
   10  -0.0000000  -0.0000000   0.0000000   0.0000000
   11  -0.0000002   0.0000005  -0.0000001   0.0000003
   12   0.0000004  -0.0000003   0.0000003  -0.0000001
   13  -0.0000022   0.0000035   0.0000026   0.0000008
   14   0.0000042  -0.0000020   0.0000007   0.0000024
   15   0.0000589   0.0000004   0.0000389   0.0000008
   16   0.0000008   0.0000865   0.0000009   0.0000386
   17  -0.0001000   0.0000111   0.0000460   0.0000017
   18   0.0000118  -0.0000865   0.0000017   0.0000385
   19  -0.0123974   0.0008087   0.0005312   0.0000183
   20   0.0008466  -0.0127236   0.0000129   0.0005002
   21   0.0013950   0.0012284  -0.0000000  -0.0000000
   22   0.0022950   0.0017784   0.0000000   0.0000000
   23  -0.0001107  -0.0001532  -0.0000211  -0.0000248
   24  -0.0068418   0.0053856   0.0057542   0.0059958
   25   0.0000000   0.0000000   0.0000000   0.0000000
   26   0.0000000   0.0000000   0.0000000   0.0000000
   27   0.0006480   0.0000148   0.0000000   0.0000000
   28   0.0000148   0.0004953   0.0000000   0.0000000
   29   0.0007983   0.0003124  -0.0000000  -0.0000000
   30   0.0004589   0.0004206  -0.0000000  -0.0000000
   31   0.0004663   0.0008822  -0.0000000  -0.0000000
   32   0.0006861   0.0000142   0.0000000   0.0000000
   33   0.0000160   0.0004007   0.0000000   0.0000000
   34   0.0001284   0.0000234  -0.0000000  -0.0000000
   35   0.0008501   0.0003395  -0.0000000  -0.0000000
   36   0.0005344   0.0008652  -0.0000000  -0.0000000
   37   0.0000135   0.0001773  -0.0000000  -0.0000000
   38   0.0002784   0.0000062   0.0000000   0.0000000
   39   0.0014629   0.0002716   0.0000000   0.0000000
   40   0.0002001   0.0008906   0.0000000   0.0000000
   41   0.0000058   0.0001369   0.0000000   0.0000000
   42   0.0006770   0.0000323  -0.0000000  -0.0000000
   43   0.0000191   0.0007414  -0.0000000  -0.0000000
   44   0.0022095   0.0003078   0.0000000   0.0000000
   45   0.0008107   0.0005397   0.0000000   0.0000000
   46   0.0002154   0.0011089   0.0000000   0.0000000
   47   0.0022150   0.0001030  -0.0000000  -0.0000000
   48   0.0000690   0.0022134  -0.0000000  -0.0000000
   49   0.0000671   0.0000342   0.0000000   0.0000000
   50   0.0001632   0.0000347   0.0000000   0.0000000
   51   0.0021259   0.0008765  -0.0000001  -0.0000001
   52   0.0004730   0.0004472  -0.0000001  -0.0000001
   53   0.0008257   0.0021922  -0.0000000  -0.0000001
   54   0.0000660   0.0000305   0.0000003   0.0000000
   55   0.0000874   0.0000734   0.0000005   0.0000005
   56   0.0000381   0.0000994  -0.0000000   0.0000003
   57   0.0057321   0.0019203   0.0000002   0.0000007
   58   0.0018639   0.0060179   0.0000007   0.0000001
   59   0.0010843   0.0003448  -0.0000022   0.0000023
   60   0.0002021   0.0009000   0.0000021  -0.0000020
   61   0.0083570   0.0049969  -0.0000015   0.0000008
   62   0.0003630   0.0006146  -0.0000018  -0.0000024
   63   0.0045154   0.0085733   0.0000004  -0.0000018
   64   0.0067351   0.0008261  -0.0000200   0.0000372
   65   0.0006191   0.0052477   0.0000386  -0.0000184
   66   0.0020663   0.0029924   0.0000726  -0.0000026
   67   0.0116827   0.0019719   0.0000866   0.0002333
   68   0.0026870   0.0143367   0.0002161   0.0000838
   69   0.0021516   0.0018787  -0.0000022   0.0000675
   70   0.0140881   0.0017007   0.0006034   0.0000244
   71   0.0311934   0.0036477   0.0000033   0.0006911
   72   0.0034644   0.0275228   0.0006736   0.0000293
   73   0.0013005   0.0122599   0.0000228   0.0006083
   74  -0.0049929   0.0083215   0.0039583   0.0001221
   75   0.0066737  -0.0065187   0.0001000   0.0036608
   76   1.5287412   0.0360329  -0.0153082  -0.0002394
   77   1.2988684   1.4031220  -0.0095452  -0.0092747
   78   0.0263510   1.4083113  -0.0002065  -0.0155147
   79   3.8957479   0.0065606   0.9324519   0.0012033
   80   0.0065606   3.8956001   0.0011317   0.9324633
   81   0.9324519   0.0011317   0.9242963   0.0036526
   82   0.0012033   0.9324633   0.0036526   0.9243982


 Total job time:  36809.79s(wall), 36335.78s(cpu) 
 Sat Sep  9 03:53:24 2023

        *************************************************************
        *                                                           *
        *  Thank you very much for using Q-Chem.  Have a nice day.  *
        *                                                           *
        *************************************************************


