                  Welcome to Q-Chem
     A Quantum Leap Into The Future Of Chemistry


 Q-Chem 6.0 (devel), Q-Chem, Inc., Pleasanton, CA (2022)

 E. Epifanovsky,  A. T. B. Gilbert,  Xintian Feng,  Joonho Lee,  Yuezhi Mao,  
 N. Mardirossian,  P. Pokhilko,  A. White,  M. Wormit,  M. P. Coons,  
 A. L. Dempwolff,  Zhengting Gan,  D. Hait,  P. R. Horn,  L. D. Jacobson,  
 I. Kaliman,  J. Kussmann,  A. W. Lange,  Ka Un Lao,  D. S. Levine,  Jie Liu,  
 S. C. McKenzie,  A. F. Morrison,  K. Nanda,  F. Plasser,  D. R. Rehn,  
 M. L. Vidal,  Zhi-Qiang You,  Ying Zhu,  B. Alam,  B. Albrecht,  
 A. Aldossary,  E. Alguire,  J. H. Andersen,  V. Athavale,  D. Barton,  
 K. Begam,  A. Behn,  N. Bellonzi,  Y. A. Bernard,  E. J. Berquist,  
 H. Burton,  A. Carreras,  K. Carter-Fenk,  Romit Chakraborty,  
 Chandrima Chakravarty,  Junhan Chen,  A. D. Chien,  K. D. Closser,  
 V. Cofer-Shabica,  L. Cunha,  S. Dasgupta,  Jia Deng,  M. de Wergifosse,  
 M. Diedenhofen,  Hainam Do,  S. Ehlert,  Po-Tung Fang,  S. Fatehi,  
 Qingguo Feng,  T. Friedhoff,  B. Ganoe,  J. Gayvert,  Qinghui Ge,  
 G. Gidofalvi,  M. Goldey,  J. Gomes,  C. Gonzalez-Espinoza,  S. Gulania,  
 A. Gunina,  J. A. Gyamfi,  M. W. D. Hanson-Heine,  P. H. P. Harbach,  
 A. W. Hauser,  M. F. Herbst,  M. Hernandez Vera,  M. Hodecker,  
 Z. C. Holden,  S. Houck,  Xunkun Huang,  Kerwin Hui,  B. C. Huynh,  
 K. Ikeda,  M. Ivanov,  Hyunjun Ji,  Zuxin Jin,  Hanjie Jiang,  B. Kaduk,  
 S. Kaehler,  R. Kang,  K. Khistyaev,  Jaehoon Kim,  Yongbin Kim,  
 P. Klunzinger,  Z. Koczor-Benda,  Joong Hoon Koh,  D. Kosenkov,  
 Saikiran Kotaru,  L. Koulias,  T. Kowalczyk,  C. M. Krauter,  K. Kue,  
 A. Kunitsa,  T. Kus,  A. Landau,  K. V. Lawler,  D. Lefrancois,  S. Lehtola,  
 Rain Li,  Shaozhi Li,  Yi-Pei Li,  Jiashu Liang,  M. Liebenthal,  
 Hung-Hsuan Lin,  You-Sheng Lin,  Fenglai Liu,  Kuan-Yu Liu,  
 M. Loipersberger,  A. Luenser,  C. Malbon,  A. Manjanath,  P. Manohar,  
 E. Mansoor,  S. F. Manzer,  Shan-Ping Mao,  A. V. Marenich,  T. Markovich,  
 S. Mason,  F. Matz,  S. A. Maurer,  P. F. McLaughlin,  M. F. S. J. Menger,  
 J.-M. Mewes,  S. A. Mewes,  P. Morgante,  Mohammad Mostafanejad,  
 J. W. Mullinax,  K. J. Oosterbaan,  G. Paran,  V. Parravicini,  
 Alexander C. Paul,  Suranjan K. Paul,  F. Pavosevic,  Zheng Pei,  S. Prager,  
 E. I. Proynov,  E. Ramos,  B. Rana,  A. E. Rask,  A. Rettig,  R. M. Richard,  
 F. Rob,  E. Rossomme,  T. Scheele,  M. Scheurer,  M. Schneider,  
 P. E. Schneider,  N. Sergueev,  S. M. Sharada,  Hengyuan Shen,  
 W. Skomorowski,  D. W. Small,  C. J. Stein,  Yingli Su,  Yu-Chuan Su,  
 E. J. Sundstrom,  Zhen Tao,  J. Thirman,  Hung-Yi Tsai,  T. Tsuchimochi,  
 N. M. Tubman,  C. Utku,  S. P. Veccham,  O. Vydrov,  J. Wenzel,  
 Jonathan Wong,  J. Witte,  A. Yamada,  Chou-Hsun Yang,  Kun Yao,  
 S. Yeganeh,  S. R. Yost,  A. Zech,  F. Zeller,  Igor Ying Zhang,  
 Xing Zhang,  Yu Zhang,  D. Zuev,  A. Aspuru-Guzik,  A. T. Bell,  
 N. A. Besley,  K. B. Bravaya,  B. R. Brooks,  D. Casanova,  Jeng-Da Chai,  
 Hsing-Ta Chen,  S. Coriani,  C. J. Cramer,  A. E. DePrince, III,  
 R. A. DiStasio Jr.,  A. Dreuw,  B. D. Dunietz,  T. R. Furlani,  
 W. A. Goddard III,  S. Grimme,  S. Hammes-Schiffer,  T. Head-Gordon,  
 W. J. Hehre,  Chao-Ping Hsu,  T.-C. Jagau,  Yousung Jung,  A. Klamt,  
 Jing Kong,  D. S. Lambrecht,  Xiangyuan Li,  WanZhen Liang,  N. J. Mayhall,  
 C. W. McCurdy,  J. B. Neaton,  T. Neudecker,  C. Ochsenfeld,  
 J. A. Parkhill,  R. Peverati,  V. A. Rassolov,  Haisheng Ren,  Yihan Shao,  
 L. V. Slipchenko,  R. P. Steele,  J. E. Subotnik,  A. J. W. Thom,  
 A. Tkatchenko,  D. G. Truhlar,  T. Van Voorhis,  Fan Wang,  
 T. A. Wesolowski,  K. B. Whaley,  H. L. Woodcock III,  P. M. Zimmerman,  
 S. Faraji,  P. M. W. Gill,  M. Head-Gordon,  J. M. Herbert,  A. I. Krylov

 Contributors to earlier versions of Q-Chem not listed above: 
 R. D. Adamson,  B. Austin,  R. Baer,  J. Baker,  G. J. O. Beran,  
 K. Brandhorst,  S. T. Brown,  E. F. C. Byrd,  Arup K. Chakraborty,  
 G. K. L. Chan,  Chun-Min Chang,  Yunqing Chen,  C.-L. Cheng,  
 Siu Hung Chien,  D. M. Chipman,  D. L. Crittenden,  H. Dachsel,  
 R. J. Doerksen,  A. D. Dutoi,  R. G. Edgar,  J. Fosso-Tande,  
 L. Fusti-Molnar,  D. Ghosh,  A. Ghysels,  A. Golubeva-Zadorozhnaya,  
 J. Gonthier,  M. S. Gordon,  S. R. Gwaltney,  G. Hawkins,  J. E. Herr,  
 A. Heyden,  S. Hirata,  E. G. Hohenstein,  G. Kedziora,  F. J. Keil,  
 C. Kelley,  Jihan Kim,  R. A. King,  R. Z. Khaliullin,  P. P. Korambath,  
 W. Kurlancheek,  A. Laurent,  A. M. Lee,  M. S. Lee,  S. V. Levchenko,  
 Ching Yeh Lin,  D. Liotard,  E. Livshits,  R. C. Lochan,  I. Lotan,  
 L. A. Martinez-Martinez,  P. E. Maslen,  N. Nair,  D. P. O'Neill,  
 D. Neuhauser,  E. Neuscamman,  C. M. Oana,  R. Olivares-Amaya,  R. Olson,  
 T. M. Perrine,  B. Peters,  P. A. Pieniazek,  A. Prociuk,  Y. M. Rhee,  
 J. Ritchie,  M. A. Rohrdanz,  E. Rosta,  N. J. Russ,  H. F. Schaefer III,  
 M. W. Schmidt,  N. E. Schultz,  S. Sharma,  N. Shenvi,  C. D. Sherrill,  
 A. C. Simmonett,  A. Sodt,  T. Stein,  D. Stuck,  K. S. Thanthiriwatte,  
 V. Vanovschi,  L. Vogt,  Tao Wang,  A. Warshel,  M. A. Watson,  
 C. F. Williams,  Q. Wu,  X. Xu,  Jun Yang,  W. Zhang,  Yan Zhao

   Please cite Q-Chem as follows:
  "Software for the frontiers of quantum chemistry:
   An overview of developments in the Q-Chem 5 package"
   J. Chem. Phys. 155, 084801 (2021)
   https://doi.org/10.1063/5.0055522 (open access)

 Q-Chem 6.0.1 for Intel X86 EM64T Linux

 Parts of Q-Chem use Armadillo 9.900.5 (Nocturnal Misbehaviour).
 http://arma.sourceforge.net/

 Q-Chem begins on Tue Apr 16 08:27:57 2024  

 Host: atlas-331
0

     Scratch files written to ./qchem457796//
 Processing $rem in /scratch/abel/SOFTWARE/qchem/config/preferences:
 Processing $rem in /dipc/acebg/.qchemrc:

 Checking the input file for inconsistencies... 	...done.

--------------------------------------------------------------
User input:
--------------------------------------------------------------
$comment
 RAS-SF CALCULATION
$end

$molecule
READ C84H36B4_singlet.molecule
$end

$rem
!**CALCULATION TYPE***     
JOBTYPE            sp    
EXCHANGE           HF
CORRELATION        RASCI    !RASCI=Casanova; RASCI2=Zimmerman
BASIS              6-31G*

!***SCF REFERENCE***
!SKIP_SCFMAN        FALSE
UNRESTRICTED       FALSE
!SCF_GUESS          core
!SCF_GUESS_MIX      FALSE
!SCF_GUESS_ALWAYS   FALSE
MAX_SCF_CYCLES      999
SCF_CONVERGENCE    10
SCF_ALGORITHM      DIIS_GDM !DIIS,DM,DIIS_DM,GDM,DIIS_GDM,GD

!SYMMETRY           TRUE   !use of symmetry for calculating integrals
!SYM_IGNORE         FALSE  !turn off using symmetry
!SYM_TOL            5      !tolerance for determining point group
!USE_ABELIAN_SUBGROUP      !define to use abelian group

!THRESH             14
!SCF_FINAL_PRINT     1 !0,1,2,3

!****RAS-SF****
RAS_ROOTS          20       !number of RAS-CI roots to be computed
SET_ITER           150     !number of iterations in RASCI
RAS_ELEC 6
!RAS_ELEC_ALPHA 4
!RAS_ELEC_BETA 2

RAS_ACT 6
RAS_ACT_ORB [278, 279, 280, 281, 282, 283]
RAS_OCC 277
N_FROZEN_CORE      FC     !Number of frozen core orbitals
N_FROZEN_VIRTUAL   0      !Number of frozen virtual orbitals

!RAS_DO_HOLE        TRUE   !presence of hole excitations in RAS-CI wave function
!RAS_DO_PART        TRUE   !presence of particle excitations
!RAS_AMPL_PRINT     10     !threshold (×10 2 ) for the CI amplitudes

!RAS_GUESS_CS       0      !number of closed shell guess conﬁgurations
RAS_SPIN_MULT      0      !spin multiplicity. Only for Ms = 0 
!RAS_SRDFT          FALSE  !short-range density functional RAS-CI
!RAS_NFRAG          0     !fragments of excitation analysis in RASCI

RAS_PRINT          2      !level of information
!RAS_NATORB         TRUE   !computation of the natural orbital occupancies
!RAS_NATORB_STATE  0      !Saves NO of i RAS computed state in .fchk ﬁle
!RAS_FOD            TRUE

!****RAS-SOC****
CALC_SOC           TRUE   !calculate SOC for EOM-CC, RAS-CI, ADC, TDDFT/TDA and TDDFT
!RAS_SOC_2E        TRUE   !two-electron mean-ﬁeld contribution, default=true
RAS_SOC_SYM_DENS   TRUE   !averaging of α and β densities

!****MEMORY****
MEM_TOTAL          60000 !Default 2000 MB
MEM_STATIC         20000  !Default 64 MB

!**Molecular Properties and Analysis **                                                                                          
!POP_MULLIKEN       TRUE   !Run Mulliken population analysis
!LOWDIN_POPULATION  TRUE   !Run Löwdin population analysis
GUI                0       !Checkpoints generation
STATE_ANALYSIS     TRUE

!**Wave function analysis of RAS-CI states: MOLDEN**
!PLOTS = 0     ! Note: This can be omitted, default is 0
!NTO_PAIRS = 2 ! Note: This can be omitted, default is 2
!GUI 0
!MOLDEN_FORMAT      TRUE
!PRINT_ORBITALS     15

!**Wave function analysis of RAS-CI state: CUBE**
!NTO_PAIRS = 2 ! Note: This can be omitted, default is 2
!PLOTS = 1
!GUI 0

!**SR-DFT**
!RAS_SRDFT           TRUE !Perform short-range density functional RAS-CI
!RAS_SRDFT_EXC       0 !EX functional. 0=HF. 
!RAS_SRDFT_ONLY_COR  TRUE !No use of EXC functional
!RAS_SRDFT_COR       srPBE !short-range correlation functional
!ras_srdft_0         TRUE !true: no iteration (one-shot); false: iteration
!RAS_OMEGA           400 !Coulomb range-separation parameter. def=400
!RAS_SRDFT_DAMP     0.5 !dumping factor. def=0.5
$end

!$plots
!   grid_points 100 100 100
!   grid_range  (-10,10) (-10,10) (-10,10)
!$end

--------------------------------------------------------------
 ----------------------------------------------------------------
             Standard Nuclear Orientation (Angstroms)
    I     Atom           X                Y                Z
 ----------------------------------------------------------------
    1      H      -3.3462300000    -3.3954720000     0.0000000000
    2      H      -3.3462300000     3.3954720000    -0.0000000000
    3      H      -0.9652790000    -3.3958790000     0.0000000000
    4      H      -0.9652790000     3.3958790000    -0.0000000000
    5      C      -3.5943640000    -1.2327250000     0.0000000000
    6      C      -3.5943640000     1.2327250000    -0.0000000000
    7      C      -2.8389400000    -2.4395500000     0.0000000000
    8      C      -2.8747810000    -0.0000000000    -0.0000000000
    9      C      -2.8389400000     2.4395500000    -0.0000000000
   10      C      -1.4726030000    -2.4396620000     0.0000000000
   11      C      -1.4343660000    -0.0000000000    -0.0000000000
   12      C      -1.4726030000     2.4396620000    -0.0000000000
   13      C      -0.7164830000    -1.2337390000     0.0000000000
   14      C      -0.7164830000     1.2337390000    -0.0000000000
   15      C       5.0284730000    -1.2319610000     0.0000000000
   16      C       5.0284730000     1.2319610000    -0.0000000000
   17      C       5.7521750000     0.0000000000     0.0000000000
   18      C       5.7758800000    -2.4402370000     0.0000000000
   19      C       5.7758800000     2.4402370000    -0.0000000000
   20      H       5.2638670000    -3.3940780000     0.0000000000
   21      C       7.1431180000    -2.4468650000     0.0000000000
   22      C       7.1943860000     0.0000000000     0.0000000000
   23      H       5.2638670000     3.3940780000    -0.0000000000
   24      C       7.1431180000     2.4468650000    -0.0000000000
   25      H       7.6499760000    -3.4030010000     0.0000000000
   26      C       7.9067350000    -1.2492760000     0.0000000000
   27      C       7.9067350000     1.2492760000    -0.0000000000
   28      H       7.6499760000     3.4030010000    -0.0000000000
   29      C       9.3491920000    -1.2527600000     0.0000000000
   30      C       9.3491920000     1.2527600000    -0.0000000000
   31      C      10.1080510000    -2.4758050000     0.0000000000
   32      C      10.0246480000     0.0000000000     0.0000000000
   33      C      10.1080510000     2.4758050000    -0.0000000000
   34      H       9.5732180000    -3.4203300000     0.0000000000
   35      C      11.5124980000    -2.5471300000     0.0000000000
   36      B      11.5260400000     0.0000000000     0.0000000000
   37      H       9.5732180000     3.4203300000    -0.0000000000
   38      C      11.5124980000     2.5471300000    -0.0000000000
   39      C      12.2674000000    -3.7787010000     0.0000000000
   40      C      12.2632560000    -1.3300700000     0.0000000000
   41      C      12.2632560000     1.3300700000    -0.0000000000
   42      C      12.2674000000     3.7787010000    -0.0000000000
   43      H      11.7340010000    -4.7271960000     0.0000000000
   44      C      13.6426690000    -3.7770280000     0.0000000000
   45      C      13.6627100000    -1.3366320000     0.0000000000
   46      C      13.6627100000     1.3366320000    -0.0000000000
   47      H      11.7340010000     4.7271960000    -0.0000000000
   48      C      13.6426690000     3.7770280000    -0.0000000000
   49      H      14.1766310000    -4.7249720000     0.0000000000
   50      C      14.3966140000    -2.5480150000     0.0000000000
   51      B      14.4069830000     0.0000000000     0.0000000000
   52      C      14.3966140000     2.5480150000    -0.0000000000
   53      H      14.1766310000     4.7249720000    -0.0000000000
   54      C      15.8264050000    -2.4719850000     0.0000000000
   55      C      15.9285780000    -0.0000000000     0.0000000000
   56      C      15.8264050000     2.4719850000    -0.0000000000
   57      H      16.3856530000    -3.4057840000     0.0000000000
   58      C      16.5545470000    -1.2731040000     0.0000000000
   59      C      16.5545470000     1.2731040000     0.0000000000
   60      H      16.3856530000     3.4057840000    -0.0000000000
   61      H      17.6430830000    -1.3513290000     0.0000000000
   62      H      17.6430830000     1.3513290000     0.0000000000
   63      H       0.9652790000    -3.3958790000     0.0000000000
   64      H       0.9652790000     3.3958790000    -0.0000000000
   65      H       3.3462300000    -3.3954720000     0.0000000000
   66      H       3.3462300000     3.3954720000    -0.0000000000
   67      C       0.7164830000    -1.2337390000     0.0000000000
   68      C       0.7164830000     1.2337390000    -0.0000000000
   69      C       1.4726030000    -2.4396620000     0.0000000000
   70      C       1.4343660000     0.0000000000     0.0000000000
   71      C       1.4726030000     2.4396620000    -0.0000000000
   72      C       2.8389400000    -2.4395500000     0.0000000000
   73      C       2.8747810000     0.0000000000     0.0000000000
   74      C       2.8389400000     2.4395500000    -0.0000000000
   75      C       3.5943640000    -1.2327250000     0.0000000000
   76      C       3.5943640000     1.2327250000    -0.0000000000
   77      H     -16.3856530000    -3.4057840000     0.0000000000
   78      H     -16.3856530000     3.4057840000    -0.0000000000
   79      H     -14.1766310000    -4.7249720000     0.0000000000
   80      H     -14.1766310000     4.7249720000    -0.0000000000
   81      H     -11.7340010000    -4.7271960000     0.0000000000
   82      H     -11.7340010000     4.7271960000    -0.0000000000
   83      H      -9.5732180000    -3.4203300000     0.0000000000
   84      H      -9.5732180000     3.4203300000    -0.0000000000
   85      B     -14.4069830000     0.0000000000    -0.0000000000
   86      B     -11.5260400000    -0.0000000000    -0.0000000000
   87      H     -17.6430830000    -1.3513290000    -0.0000000000
   88      H     -17.6430830000     1.3513290000    -0.0000000000
   89      C     -16.5545470000    -1.2731040000    -0.0000000000
   90      C     -16.5545470000     1.2731040000    -0.0000000000
   91      C     -15.8264050000    -2.4719850000     0.0000000000
   92      C     -15.9285780000     0.0000000000    -0.0000000000
   93      C     -15.8264050000     2.4719850000    -0.0000000000
   94      C     -14.3966140000    -2.5480150000     0.0000000000
   95      C     -14.3966140000     2.5480150000    -0.0000000000
   96      C     -13.6426690000    -3.7770280000     0.0000000000
   97      C     -13.6627100000    -1.3366320000     0.0000000000
   98      C     -13.6627100000     1.3366320000    -0.0000000000
   99      C     -13.6426690000     3.7770280000    -0.0000000000
  100      C     -12.2674000000    -3.7787010000     0.0000000000
  101      C     -12.2632560000    -1.3300700000     0.0000000000
  102      C     -12.2632560000     1.3300700000    -0.0000000000
  103      C     -12.2674000000     3.7787010000    -0.0000000000
  104      C     -11.5124980000    -2.5471300000     0.0000000000
  105      C     -11.5124980000     2.5471300000    -0.0000000000
  106      C     -10.1080510000    -2.4758050000     0.0000000000
  107      C     -10.0246480000     0.0000000000    -0.0000000000
  108      C     -10.1080510000     2.4758050000    -0.0000000000
  109      C      -9.3491920000    -1.2527600000     0.0000000000
  110      C      -9.3491920000     1.2527600000    -0.0000000000
  111      H      -7.6499760000    -3.4030010000     0.0000000000
  112      H      -7.6499760000     3.4030010000    -0.0000000000
  113      H      -5.2638670000    -3.3940780000     0.0000000000
  114      H      -5.2638670000     3.3940780000    -0.0000000000
  115      C      -7.9067350000    -1.2492760000     0.0000000000
  116      C      -7.9067350000     1.2492760000    -0.0000000000
  117      C      -7.1431180000    -2.4468650000     0.0000000000
  118      C      -7.1943860000     0.0000000000    -0.0000000000
  119      C      -7.1431180000     2.4468650000    -0.0000000000
  120      C      -5.7758800000    -2.4402370000     0.0000000000
  121      C      -5.7521750000     0.0000000000    -0.0000000000
  122      C      -5.7758800000     2.4402370000    -0.0000000000
  123      C      -5.0284730000    -1.2319610000     0.0000000000
  124      C      -5.0284730000     1.2319610000    -0.0000000000
 ----------------------------------------------------------------
 Molecular Point Group                 D2h   NOp =  8
 Largest Abelian Subgroup              D2h   NOp =  8
 Nuclear Repulsion Energy =       11463.93255018 hartrees
 There are      280 alpha and      280 beta electrons
 Requested basis set is 6-31G(d)
 There are 424 shells and 1392 basis functions

 Q-Chem warning in module libmdc/get_mega.C, line 167:

 Allowed MEM_STATIC has been capped at MEM_STATIC=8191.
 Reduce the value of MEM_STATIC to silence this warning.


 Total QAlloc Memory Limit  60000 MB
 Mega-Array Size      8007 MB
 MEM_STATIC part      8191 MB

 A cutoff of  1.0D-14 yielded  24076 shell pairs
 There are    287320 function pairs
 Smallest overlap matrix eigenvalue = 6.00E-05

 Scale SEOQF with 1.000000e-03/1.000000e-01/1.000000e+00

 Standard Electronic Orientation quadrupole field applied
 Nucleus-field energy     =     0.0000002094 hartrees
 Guess from superposition of atomic densities
 Warning:  Energy on first SCF cycle will be non-variational
 SAD guess density has 560.000001 electrons

 -----------------------------------------------------------------------
  General SCF calculation program by
  Eric Jon Sundstrom, Paul Horn, Yuezhi Mao, Dmitri Zuev, Alec White,
  David Stuck, Shaama M.S., Shane Yost, Joonho Lee, David Small,
  Daniel Levine, Susi Lehtola, Hugh Burton, Evgeny Epifanovsky,
  Bang C. Huynh
 -----------------------------------------------------------------------
 Hartree-Fock
 A restricted SCF calculation will be
 performed using DIIS, GDM
 SCF converges when RMS gradient is below 1.0e-10
 ---------------------------------------
  Cycle       Energy         DIIS error
 ---------------------------------------
    1   -3344.1494465360      2.34e-02  
    2   -3299.3050418074      1.84e-03  Done DIIS. Switching to GDM
 ---------------------------------------
  Cycle       Energy        RMS Gradient
 ---------------------------------------
    1   -3299.3050418074      2.67e-01   Descent step
    2   -3299.9753489464      1.00e-01   Descent step
    3   -3300.3748466767      3.19e-02   Descent step
    4   -3300.6089856543      2.06e-02   Dog-leg BFGS step
    5   -3300.6877582030      1.49e-02   Normal BFGS step
    6   -3300.6895452033      1.22e-02   Normal BFGS step
    7   -3300.6908042558      6.10e-03   Normal BFGS step
    8   -3300.6913972897      1.34e-03   Normal BFGS step
    9   -3300.6914605226      8.59e-04   Normal BFGS step
   10   -3300.6914881081      3.14e-04   Normal BFGS step
   11   -3300.6914948612      2.65e-04   Normal BFGS step
   12   -3300.6914962661      1.02e-04   Normal BFGS step
   13   -3300.6914965806      3.91e-05   Normal BFGS step
   14   -3300.6914966473      3.01e-05   Normal BFGS step
   15   -3300.6914966650      1.30e-05   Normal BFGS step
   16   -3300.6914966699      8.78e-06   Normal BFGS step
   17   -3300.6914966714      5.89e-06   Normal BFGS step
   18   -3300.6914966719      1.46e-06   Normal BFGS step
   19   -3300.6914966720      7.24e-07   Normal BFGS step
   20   -3300.6914966720      1.72e-07   Normal BFGS step
   21   -3300.6914966720      1.10e-07   Normal BFGS step
   22   -3300.6914966720      4.02e-08   Normal BFGS step
   23   -3300.6914966720      2.27e-08   Normal BFGS step
  GDM::WARNING energy changes are now smaller than effective accuracy.
  GDM::        calculation will continue, but THRESH should be increased
  GDM::        or SCF_CONVERGENCE decreased. 
  GDM::        effective_thresh = 3.11e-08
   24   -3300.6914966720      8.57e-09   Normal BFGS step
   25   -3300.6914966720      2.71e-09   Normal BFGS step
   26   -3300.6914966720      1.21e-09   Normal BFGS step
  GDM::WARNING energy changes are now smaller than effective accuracy.
  GDM::        calculation will continue, but THRESH should be increased
  GDM::        or SCF_CONVERGENCE decreased. 
  GDM::        effective_thresh = 3.11e-08
   27   -3300.6914966720      9.46e-10   Normal BFGS step
   28   -3300.6914966720      4.55e-10   Normal BFGS step
   29   -3300.6914966720      1.54e-10   Normal BFGS step
  GDM::WARNING energy changes are now smaller than effective accuracy.
  GDM::        calculation will continue, but THRESH should be increased
  GDM::        or SCF_CONVERGENCE decreased. 
  GDM::        effective_thresh = 3.11e-08
   30   -3300.6914966719      7.17e-11  Convergence criterion met
 ---------------------------------------
 SCF time:   CPU 1811.81s  wall 1820.00s 
 SCF   energy in the final basis set =    -3300.6914966719
 Total energy in the final basis set =    -3300.6914966719

 Q-Chem warning in module 0, line  204:

 Quadrupole field failed to resolve orbital degeneracies.


 Q-Chem warning in module 0, line  204:

 Quadrupole field failed to resolve orbital degeneracies.

  
     ##========================================##
     ||                                        ||
     ||              R A S M A N 2             ||
     ||________________________________________||
     ||                                        ||
     ||  Author:                               ||
     ||                                        ||
     ||        David Casanova (2010)           ||
     ||                                        ||
     ##========================================##
  
Setting single-point xc-functionals (if necessary)

  ***************************************************
  *  RAS-CI Dimensions:                             *
  *                                                 *
  *  Active Elec.:   6 ( 3, 3)   Active Orb.:   6   *
  *  Doubly Occ. : 277           Doubly Vir.: 1109   *
  *  Frozen Occ. :  88           Frozen Vir.:   0   *
  *                                                 *
  *  Total CI configurations:    779200             * 
  *    Active configurations:       400             * 
  *      Hole configurations:    113400             * 
  *  Particle configurations:    665400             * 
  *                                                 *
  *   Requested states:       20                    *
  *  Spin multiplicity: Any multiplicity            *
  *                                                 *
  ***************************************************
-----------------------------------------
    Memory requirements of RASCI

 Each CI-vector requires      5.94 MiB 
 Max. subspace vectors           3000      

 Reduced Lists                0.00 MiB 
 Excitation Lists             0.00 MiB 
 Excitation Lists Sign        0.00 MiB 
 CI-space (Max)           18022.06 MiB 
 Integrals                  726.81 MiB 
 Memory required (Max)    18022.06 MiB 
 Memory available          7811.55 MiB 

 Q-Chem warning in module rasman2/ras_mem_check.C, line 162:

 Static memory may be insufficient to store the subspace vectors


    Disk requirements of RASCI

 Fock matrix                 29.57 MiB 
 2-electron integrals      1509.87 MiB 
 CI-space                 35668.95 MiB 
 Disk required            37208.38 MiB 
-----------------------------------------
  
RAS1 HF-like energy:          -3298.3152191221
 Computing integrals
 Computing J and K matrices
 Computing addressing
 Making amplitude guesses
 
Direct CI diagonalization
 ---------------------------------------------------
 Iter    Rts Conv    Rts Left    Ttl Dev     Max Dev
 ---------------------------------------------------
   1         0          20      0.002396    0.000201
   2         0          20      0.001614    0.000129
   3         0          20      0.001341    0.000110
   4         0          20      0.000999    0.000081
   5         0          20      0.001010    0.000156
   6         0          20      0.001016    0.000106
   7         0          20      0.000977    0.000112
   8         0          20      0.000884    0.000118
   9         0          20      0.000692    0.000116
  10         0          20      0.000505    0.000080
  11         0          20      0.000410    0.000061
  12         0          20      0.000340    0.000059
  13         0          20      0.000303    0.000055
  14         1          19      0.000376    0.000086
  15         1          19      0.000312    0.000070
  16         1          19      0.000293    0.000057
  17         2          18      0.000260    0.000046
  18         6          14      0.000273    0.000061
  19         7          13      0.000206    0.000045
  20         7          13      0.000158    0.000032
  21         8          12      0.000163    0.000041
  22         8          12      0.000134    0.000033
  23         9          11      0.000120    0.000025
  24        11           9      0.000127    0.000031
  25        10          10      0.000112    0.000028
  26        11           9      0.000101    0.000031
  27        13           7      0.000090    0.000024
  28        13           7      0.000073    0.000020
  29        13           7      0.000061    0.000016
  30        13           7      0.000053    0.000013
  31        14           6      0.000048    0.000012
  32        14           6      0.000072    0.000030
  33        15           5      0.000057    0.000022
  34        15           5      0.000044    0.000016
  35        15           5      0.000035    0.000012
  36        15           5      0.000025    0.000008
  37        15           5      0.000020    0.000006
  38        16           4      0.000015    0.000004
  39        17           3      0.000013    0.000003
  40        17           3      0.000011    0.000002
  41        18           2      0.000009    0.000001
  42        19           1      0.000009    0.000001
  43        20           0      0.000008    0.000001    Roots Converged
 ---------------------------------------------------
   
**************************************************
 RAS-CI total energy for state   1:  -3300.802655823305
  Excitation energy (eV) =  0.000000000000
  State symmetry: Ag    (D2h      )
  <S^2>      :  0.0000
  Dipole Moment:   -0.0000 X    -0.0000 Y     0.0000 Z
 NATURAL OCCUPATION NUMBERS (higher than 1.0E-05)
            1           2           3           4           5           6
    1   2.0000000   2.0000000   2.0000000   2.0000000   2.0000000   2.0000000
            7           8           9          10          11          12
    1   2.0000000   2.0000000   2.0000000   2.0000000   2.0000000   2.0000000
           13          14          15          16          17          18
    1   2.0000000   2.0000000   2.0000000   2.0000000   2.0000000   2.0000000
           19          20          21          22          23          24
    1   2.0000000   2.0000000   2.0000000   2.0000000   2.0000000   2.0000000
           25          26          27          28          29          30
    1   2.0000000   2.0000000   2.0000000   2.0000000   2.0000000   2.0000000
           31          32          33          34          35          36
    1   2.0000000   2.0000000   2.0000000   2.0000000   2.0000000   2.0000000
           37          38          39          40          41          42
    1   2.0000000   2.0000000   2.0000000   2.0000000   2.0000000   2.0000000
           43          44          45          46          47          48
    1   2.0000000   2.0000000   2.0000000   2.0000000   2.0000000   2.0000000
           49          50          51          52          53          54
    1   2.0000000   2.0000000   2.0000000   2.0000000   2.0000000   2.0000000
           55          56          57          58          59          60
    1   2.0000000   2.0000000   2.0000000   2.0000000   2.0000000   2.0000000
           61          62          63          64          65          66
    1   2.0000000   2.0000000   2.0000000   2.0000000   2.0000000   2.0000000
           67          68          69          70          71          72
    1   2.0000000   2.0000000   2.0000000   2.0000000   2.0000000   2.0000000
           73          74          75          76          77          78
    1   2.0000000   2.0000000   2.0000000   2.0000000   2.0000000   2.0000000
           79          80          81          82          83          84
    1   2.0000000   2.0000000   2.0000000   2.0000000   2.0000000   2.0000000
           85          86          87          88          89          90
    1   2.0000000   2.0000000   2.0000000   2.0000000   2.0000000   2.0000000
           91          92          93          94          95          96
    1   2.0000000   2.0000000   2.0000000   2.0000000   2.0000000   2.0000000
           97          98          99         100         101         102
    1   2.0000000   2.0000000   2.0000000   2.0000000   2.0000000   2.0000000
          103         104         105         106         107         108
    1   2.0000000   2.0000000   2.0000000   2.0000000   2.0000000   2.0000000
          109         110         111         112         113         114
    1   2.0000000   2.0000000   2.0000000   2.0000000   2.0000000   2.0000000
          115         116         117         118         119         120
    1   2.0000000   2.0000000   2.0000000   2.0000000   2.0000000   2.0000000
          121         122         123         124         125         126
    1   2.0000000   2.0000000   2.0000000   2.0000000   2.0000000   2.0000000
          127         128         129         130         131         132
    1   2.0000000   2.0000000   2.0000000   2.0000000   2.0000000   2.0000000
          133         134         135         136         137         138
    1   2.0000000   2.0000000   2.0000000   2.0000000   2.0000000   2.0000000
          139         140         141         142         143         144
    1   2.0000000   2.0000000   2.0000000   2.0000000   2.0000000   2.0000000
          145         146         147         148         149         150
    1   2.0000000   2.0000000   2.0000000   2.0000000   2.0000000   2.0000000
          151         152         153         154         155         156
    1   2.0000000   2.0000000   2.0000000   2.0000000   2.0000000   2.0000000
          157         158         159         160         161         162
    1   2.0000000   2.0000000   2.0000000   2.0000000   2.0000000   2.0000000
          163         164         165         166         167         168
    1   2.0000000   2.0000000   2.0000000   2.0000000   2.0000000   2.0000000
          169         170         171         172         173         174
    1   2.0000000   2.0000000   2.0000000   2.0000000   2.0000000   2.0000000
          175         176         177         178         179         180
    1   2.0000000   2.0000000   2.0000000   2.0000000   2.0000000   2.0000000
          181         182         183         184         185         186
    1   2.0000000   2.0000000   2.0000000   2.0000000   2.0000000   2.0000000
          187         188         189         190         191         192
    1   2.0000000   2.0000000   2.0000000   2.0000000   2.0000000   2.0000000
          193         194         195         196         197         198
    1   2.0000000   2.0000000   2.0000000   2.0000000   2.0000000   2.0000000
          199         200         201         202         203         204
    1   2.0000000   2.0000000   2.0000000   2.0000000   2.0000000   2.0000000
          205         206         207         208         209         210
    1   2.0000000   2.0000000   2.0000000   2.0000000   2.0000000   2.0000000
          211         212         213         214         215         216
    1   2.0000000   2.0000000   2.0000000   2.0000000   2.0000000   2.0000000
          217         218         219         220         221         222
    1   2.0000000   2.0000000   2.0000000   2.0000000   2.0000000   2.0000000
          223         224         225         226         227         228
    1   2.0000000   2.0000000   2.0000000   2.0000000   2.0000000   2.0000000
          229         230         231         232         233         234
    1   2.0000000   2.0000000   2.0000000   2.0000000   2.0000000   2.0000000
          235         236         237         238         239         240
    1   2.0000000   2.0000000   2.0000000   2.0000000   2.0000000   2.0000000
          241         242         243         244         245         246
    1   1.9999999   1.9999999   1.9999999   1.9999998   1.9999998   1.9999997
          247         248         249         250         251         252
    1   1.9999997   1.9999995   1.9999994   1.9999990   1.9999989   1.9999984
          253         254         255         256         257         258
    1   1.9999977   1.9999977   1.9999967   1.9999948   1.9999938   1.9999893
          259         260         261         262         263         264
    1   1.9999876   1.9999837   1.9999806   1.9999802   1.9999787   1.9999777
          265         266         267         268         269         270
    1   1.9998872   1.9998704   1.9998672   1.9998512   1.9997836   1.9997060
          271         272         273         274         275         276
    1   1.9995506   1.9994471   1.9993768   1.9980592   1.9977738   1.9957608
          277         278         279         280         281         282
    1   1.9869548   1.9562026   1.7734587   1.0029607   0.9995152   0.2353649
          283         284         285         286         287         288
    1   0.0428790   0.0035998   0.0029271   0.0019221   0.0016481   0.0009165
          289         290         291         292         293         294
    1   0.0008040   0.0007093   0.0004202   0.0002071   0.0001232   0.0001215
          295         296         297         298         299         300
    1   0.0001086   0.0001015   0.0000636   0.0000436   0.0000376   0.0000248
          301         302         303         304
    1   0.0000179   0.0000134   0.0000120   0.0000101

 Head-Gordon Nu:    2.58
 Head-Gordon Nu_nl: 2.35
 Created directory ./qchem457796/plots

  Amplitudes : 
  
 | HOLE  | ALPHA  | BETA   | PART  |    AMPLITUDE 
--------------------------------------------------
 |       | 111000 | 100110 |       |     1.2853789442063E-01
 |       | 110100 | 110100 |       |     5.2842194846987E-01
 |       | 110100 | 110001 |       |     1.6934504417130E-01
 |       | 110010 | 110010 |       |    -1.6012329646745E-01
 |       | 110001 | 110100 |       |     1.6934504417130E-01
 |       | 101100 | 101100 |       |    -5.2779877532571E-01
 |       | 101100 | 101001 |       |    -1.6975747498254E-01
 |       | 101010 | 101010 |       |     1.5998731102607E-01
 |       | 101001 | 101100 |       |    -1.6975747498254E-01
 |       | 100110 | 111000 |       |     1.2853789442063E-01
 | 276   | 110110 | 110100 |       |    -1.7131072182540E-01
 | 276   | 110100 | 110110 |       |    -1.7131072182540E-01
 | 276   | 101110 | 101100 |       |     1.7040478147607E-01
 | 276   | 101100 | 101110 |       |     1.7040478147607E-01
--------------------------------------------------
*** Contributions RASCI wfn    Active:  78.61
                                 Hole:  18.05
                                 Part:   3.34

      Mulliken population analysis 
 ---------------------------------------------------
   Atom    Charge (a.u.)   Spin (a.u.)  
 ---------------------------------------------------
   1  H    0.246399       -0.000000 
   2  H    0.246399       -0.000000 
   3  H    0.238251       -0.000000 
   4  H    0.238251       -0.000000 
   5  C    0.002213       -0.000000 
   6  C    0.002213       -0.000000 
   7  C   -0.201083       -0.000000 
   8  C   -0.043172       -0.000000 
   9  C   -0.201083       -0.000000 
  10  C   -0.207364       -0.000000 
  11  C   -0.058111       -0.000000 
  12  C   -0.207364       -0.000000 
  13  C    0.003254       -0.000000 
  14  C    0.003254        0.000000 
  15  C    0.000335       -0.000000 
  16  C    0.000335       -0.000000 
  17  C   -0.066158       -0.000000 
  18  C   -0.214078       -0.000000 
  19  C   -0.214078       -0.000000 
  20  H    0.226921       -0.000000 
  21  C   -0.206243        0.000000 
  22  C   -0.037360       -0.000000 
  23  H    0.226921       -0.000000 
  24  C   -0.206243       -0.000000 
  25  H    0.252187       -0.000000 
  26  C    0.029350       -0.000000 
  27  C    0.029350       -0.000000 
  28  H    0.252187       -0.000000 
  29  C   -0.021203       -0.000000 
  30  C   -0.021203       -0.000000 
  31  C   -0.241910       -0.000000 
  32  C   -0.040462        0.000000 
  33  C   -0.241910       -0.000000 
  34  H    0.188744       -0.000000 
  35  C   -0.001263        0.000000 
  36  B    0.244808        0.000000 
  37  H    0.188744       -0.000000 
  38  C   -0.001263        0.000000 
  39  C   -0.198283       -0.000000 
  40  C   -0.052864       -0.000000 
  41  C   -0.052864        0.000000 
  42  C   -0.198283        0.000000 
  43  H    0.196574       -0.000000 
  44  C   -0.217307       -0.000000 
  45  C   -0.101325       -0.000000 
  46  C   -0.101325       -0.000000 
  47  H    0.196574       -0.000000 
  48  C   -0.217307        0.000000 
  49  H    0.204845       -0.000000 
  50  C    0.039948       -0.000000 
  51  B    0.308118       -0.000000 
  52  C    0.039948       -0.000000 
  53  H    0.204845       -0.000000 
  54  C   -0.263021        0.000000 
  55  C   -0.140773        0.000000 
  56  C   -0.263021       -0.000000 
  57  H    0.171559       -0.000000 
  58  C   -0.144066        0.000000 
  59  C   -0.144066       -0.000000 
  60  H    0.171559       -0.000000 
  61  H    0.185987       -0.000000 
  62  H    0.185987       -0.000000 
  63  H    0.238251       -0.000000 
  64  H    0.238251       -0.000000 
  65  H    0.246399       -0.000000 
  66  H    0.246399       -0.000000 
  67  C    0.003254       -0.000000 
  68  C    0.003254       -0.000000 
  69  C   -0.207364       -0.000000 
  70  C   -0.058111       -0.000000 
  71  C   -0.207364       -0.000000 
  72  C   -0.201083       -0.000000 
  73  C   -0.043172       -0.000000 
  74  C   -0.201083       -0.000000 
  75  C    0.002213       -0.000000 
  76  C    0.002213       -0.000000 
  77  H    0.171559       -0.000000 
  78  H    0.171559       -0.000000 
  79  H    0.204845       -0.000000 
  80  H    0.204845       -0.000000 
  81  H    0.196574       -0.000000 
  82  H    0.196574       -0.000000 
  83  H    0.188744       -0.000000 
  84  H    0.188744       -0.000000 
  85  B    0.308118       -0.000000 
  86  B    0.244808       -0.000000 
  87  H    0.185987       -0.000000 
  88  H    0.185987       -0.000000 
  89  C   -0.144066       -0.000000 
  90  C   -0.144066       -0.000000 
  91  C   -0.263021       -0.000000 
  92  C   -0.140773        0.000000 
  93  C   -0.263021       -0.000000 
  94  C    0.039948        0.000000 
  95  C    0.039948       -0.000000 
  96  C   -0.217307       -0.000000 
  97  C   -0.101325       -0.000000 
  98  C   -0.101325       -0.000000 
  99  C   -0.217307        0.000000 
 100  C   -0.198283       -0.000000 
 101  C   -0.052864       -0.000000 
 102  C   -0.052864       -0.000000 
 103  C   -0.198283       -0.000000 
 104  C   -0.001263       -0.000000 
 105  C   -0.001263       -0.000000 
 106  C   -0.241910       -0.000000 
 107  C   -0.040462        0.000000 
 108  C   -0.241910       -0.000000 
 109  C   -0.021203       -0.000000 
 110  C   -0.021203       -0.000000 
 111  H    0.252187       -0.000000 
 112  H    0.252187       -0.000000 
 113  H    0.226921       -0.000000 
 114  H    0.226921       -0.000000 
 115  C    0.029350       -0.000000 
 116  C    0.029350       -0.000000 
 117  C   -0.206243       -0.000000 
 118  C   -0.037360       -0.000000 
 119  C   -0.206243       -0.000000 
 120  C   -0.214078       -0.000000 
 121  C   -0.066158        0.000000 
 122  C   -0.214078       -0.000000 
 123  C    0.000335       -0.000000 
 124  C    0.000335       -0.000000 
 ---------------------------------------------------
   Sum:    0.000000        0.000000 
 ---------------------------------------------------
 
*** Unpaired Electrons
 Yamaguchi Nd:         3.06
  
**************************************************
 RAS-CI total energy for state   2:  -3300.802088634493
  Excitation energy (eV) =  0.015433992826
  State symmetry: B3u   (D2h      )
  <S^2>      :  2.0000
  Dipole Moment:   -0.0000 X    -0.0000 Y     0.0000 Z
  Trans. Moment:    0.0000 X    -0.0000 Y    -0.0000 Z
  Strength   :  0.000000
  Natural transition orbitals ( 1 -> 2 ):
   e-/hole pair  1:  ampl =  0.675776 ( 45.7%)   [6 : 7]
   e-/hole pair  2:  ampl =  0.675148 ( 45.6%)   [5 : 8]
   Sum of square amplitudes: 1.01

 NATURAL OCCUPATION NUMBERS (higher than 1.0E-05)
            1           2           3           4           5           6
    1   2.0000000   2.0000000   2.0000000   2.0000000   2.0000000   2.0000000
            7           8           9          10          11          12
    1   2.0000000   2.0000000   2.0000000   2.0000000   2.0000000   2.0000000
           13          14          15          16          17          18
    1   2.0000000   2.0000000   2.0000000   2.0000000   2.0000000   2.0000000
           19          20          21          22          23          24
    1   2.0000000   2.0000000   2.0000000   2.0000000   2.0000000   2.0000000
           25          26          27          28          29          30
    1   2.0000000   2.0000000   2.0000000   2.0000000   2.0000000   2.0000000
           31          32          33          34          35          36
    1   2.0000000   2.0000000   2.0000000   2.0000000   2.0000000   2.0000000
           37          38          39          40          41          42
    1   2.0000000   2.0000000   2.0000000   2.0000000   2.0000000   2.0000000
           43          44          45          46          47          48
    1   2.0000000   2.0000000   2.0000000   2.0000000   2.0000000   2.0000000
           49          50          51          52          53          54
    1   2.0000000   2.0000000   2.0000000   2.0000000   2.0000000   2.0000000
           55          56          57          58          59          60
    1   2.0000000   2.0000000   2.0000000   2.0000000   2.0000000   2.0000000
           61          62          63          64          65          66
    1   2.0000000   2.0000000   2.0000000   2.0000000   2.0000000   2.0000000
           67          68          69          70          71          72
    1   2.0000000   2.0000000   2.0000000   2.0000000   2.0000000   2.0000000
           73          74          75          76          77          78
    1   2.0000000   2.0000000   2.0000000   2.0000000   2.0000000   2.0000000
           79          80          81          82          83          84
    1   2.0000000   2.0000000   2.0000000   2.0000000   2.0000000   2.0000000
           85          86          87          88          89          90
    1   2.0000000   2.0000000   2.0000000   2.0000000   2.0000000   2.0000000
           91          92          93          94          95          96
    1   2.0000000   2.0000000   2.0000000   2.0000000   2.0000000   2.0000000
           97          98          99         100         101         102
    1   2.0000000   2.0000000   2.0000000   2.0000000   2.0000000   2.0000000
          103         104         105         106         107         108
    1   2.0000000   2.0000000   2.0000000   2.0000000   2.0000000   2.0000000
          109         110         111         112         113         114
    1   2.0000000   2.0000000   2.0000000   2.0000000   2.0000000   2.0000000
          115         116         117         118         119         120
    1   2.0000000   2.0000000   2.0000000   2.0000000   2.0000000   2.0000000
          121         122         123         124         125         126
    1   2.0000000   2.0000000   2.0000000   2.0000000   2.0000000   2.0000000
          127         128         129         130         131         132
    1   2.0000000   2.0000000   2.0000000   2.0000000   2.0000000   2.0000000
          133         134         135         136         137         138
    1   2.0000000   2.0000000   2.0000000   2.0000000   2.0000000   2.0000000
          139         140         141         142         143         144
    1   2.0000000   2.0000000   2.0000000   2.0000000   2.0000000   2.0000000
          145         146         147         148         149         150
    1   2.0000000   2.0000000   2.0000000   2.0000000   2.0000000   2.0000000
          151         152         153         154         155         156
    1   2.0000000   2.0000000   2.0000000   2.0000000   2.0000000   2.0000000
          157         158         159         160         161         162
    1   2.0000000   2.0000000   2.0000000   2.0000000   2.0000000   2.0000000
          163         164         165         166         167         168
    1   2.0000000   2.0000000   2.0000000   2.0000000   2.0000000   2.0000000
          169         170         171         172         173         174
    1   2.0000000   2.0000000   2.0000000   2.0000000   2.0000000   2.0000000
          175         176         177         178         179         180
    1   2.0000000   2.0000000   2.0000000   2.0000000   2.0000000   2.0000000
          181         182         183         184         185         186
    1   2.0000000   2.0000000   2.0000000   2.0000000   2.0000000   2.0000000
          187         188         189         190         191         192
    1   2.0000000   2.0000000   2.0000000   2.0000000   2.0000000   2.0000000
          193         194         195         196         197         198
    1   2.0000000   2.0000000   2.0000000   2.0000000   2.0000000   2.0000000
          199         200         201         202         203         204
    1   2.0000000   2.0000000   2.0000000   2.0000000   2.0000000   2.0000000
          205         206         207         208         209         210
    1   2.0000000   2.0000000   2.0000000   2.0000000   2.0000000   2.0000000
          211         212         213         214         215         216
    1   2.0000000   2.0000000   2.0000000   2.0000000   2.0000000   2.0000000
          217         218         219         220         221         222
    1   2.0000000   2.0000000   2.0000000   2.0000000   2.0000000   2.0000000
          223         224         225         226         227         228
    1   2.0000000   2.0000000   2.0000000   2.0000000   2.0000000   2.0000000
          229         230         231         232         233         234
    1   2.0000000   2.0000000   2.0000000   2.0000000   2.0000000   2.0000000
          235         236         237         238         239         240
    1   2.0000000   2.0000000   2.0000000   2.0000000   2.0000000   2.0000000
          241         242         243         244         245         246
    1   1.9999999   1.9999999   1.9999998   1.9999998   1.9999998   1.9999996
          247         248         249         250         251         252
    1   1.9999996   1.9999995   1.9999991   1.9999989   1.9999987   1.9999978
          253         254         255         256         257         258
    1   1.9999977   1.9999977   1.9999959   1.9999949   1.9999939   1.9999896
          259         260         261         262         263         264
    1   1.9999836   1.9999833   1.9999784   1.9999769   1.9999738   1.9999702
          265         266         267         268         269         270
    1   1.9998666   1.9998598   1.9998429   1.9998419   1.9997240   1.9996834
          271         272         273         274         275         276
    1   1.9993350   1.9992015   1.9991179   1.9978890   1.9974677   1.9951967
          277         278         279         280         281         282
    1   1.9851189   1.9534611   1.7969125   1.0027642   1.0009575   0.2090800
          283         284         285         286         287         288
    1   0.0495779   0.0034007   0.0023052   0.0020977   0.0018281   0.0011776
          289         290         291         292         293         294
    1   0.0011532   0.0011272   0.0009907   0.0002245   0.0002018   0.0001950
          295         296         297         298         299         300
    1   0.0001283   0.0001263   0.0000673   0.0000523   0.0000386   0.0000344
          301         302         303         304         305
    1   0.0000256   0.0000175   0.0000144   0.0000114   0.0000106

 Head-Gordon Nu:    2.55
 Head-Gordon Nu_nl: 2.29

  Amplitudes : 
  
 | HOLE  | ALPHA  | BETA   | PART  |    AMPLITUDE 
--------------------------------------------------
 |       | 110100 | 101100 |       |     5.3334839982312E-01
 |       | 110100 | 101001 |       |     1.6571322674818E-01
 |       | 110010 | 101010 |       |    -1.5064592118386E-01
 |       | 110001 | 101100 |       |     1.6582943276206E-01
 |       | 101100 | 110100 |       |    -5.3334839982312E-01
 |       | 101100 | 110001 |       |    -1.6582943276205E-01
 |       | 101010 | 110010 |       |     1.5064592118387E-01
 |       | 101001 | 110100 |       |    -1.6571322674819E-01
 | 276   | 101110 | 110100 |       |     1.7666950973144E-01
 | 276   | 110100 | 101110 |       |    -1.7666950973144E-01
 | 276   | 110110 | 101100 |       |    -1.7634156783296E-01
 | 276   | 101100 | 110110 |       |     1.7634156783295E-01
--------------------------------------------------
*** Contributions RASCI wfn    Active:  77.44
                                 Hole:  19.28
                                 Part:   3.28

      Mulliken population analysis 
 ---------------------------------------------------
   Atom    Charge (a.u.)   Spin (a.u.)  
 ---------------------------------------------------
   1  H    0.246399       -0.000000 
   2  H    0.246399       -0.000000 
   3  H    0.238251       -0.000000 
   4  H    0.238251       -0.000000 
   5  C    0.002518       -0.000000 
   6  C    0.002518       -0.000000 
   7  C   -0.201538       -0.000000 
   8  C   -0.043189       -0.000000 
   9  C   -0.201538       -0.000000 
  10  C   -0.207239       -0.000000 
  11  C   -0.058115       -0.000000 
  12  C   -0.207239       -0.000000 
  13  C    0.002985       -0.000000 
  14  C    0.002985       -0.000000 
  15  C   -0.000867       -0.000000 
  16  C   -0.000867       -0.000000 
  17  C   -0.066204       -0.000000 
  18  C   -0.213636        0.000000 
  19  C   -0.213636        0.000000 
  20  H    0.226921       -0.000000 
  21  C   -0.207232        0.000000 
  22  C   -0.037640       -0.000000 
  23  H    0.226921       -0.000000 
  24  C   -0.207232       -0.000000 
  25  H    0.252187       -0.000000 
  26  C    0.030251        0.000000 
  27  C    0.030251        0.000000 
  28  H    0.252187       -0.000000 
  29  C   -0.022697       -0.000000 
  30  C   -0.022697        0.000000 
  31  C   -0.241587        0.000000 
  32  C   -0.039925        0.000000 
  33  C   -0.241587        0.000000 
  34  H    0.188744       -0.000000 
  35  C   -0.001363        0.000000 
  36  B    0.243942       -0.000000 
  37  H    0.188744       -0.000000 
  38  C   -0.001363        0.000000 
  39  C   -0.198454        0.000000 
  40  C   -0.052463       -0.000000 
  41  C   -0.052463        0.000000 
  42  C   -0.198454        0.000000 
  43  H    0.196574       -0.000000 
  44  C   -0.217461       -0.000000 
  45  C   -0.100789        0.000000 
  46  C   -0.100789       -0.000000 
  47  H    0.196574       -0.000000 
  48  C   -0.217461        0.000000 
  49  H    0.204845       -0.000000 
  50  C    0.039810        0.000000 
  51  B    0.309047       -0.000000 
  52  C    0.039810        0.000000 
  53  H    0.204845       -0.000000 
  54  C   -0.261683       -0.000000 
  55  C   -0.138992       -0.000000 
  56  C   -0.261683       -0.000000 
  57  H    0.171559       -0.000000 
  58  C   -0.144481        0.000000 
  59  C   -0.144481        0.000000 
  60  H    0.171559       -0.000000 
  61  H    0.185987       -0.000000 
  62  H    0.185987       -0.000000 
  63  H    0.238251       -0.000000 
  64  H    0.238251       -0.000000 
  65  H    0.246399       -0.000000 
  66  H    0.246399       -0.000000 
  67  C    0.002985       -0.000000 
  68  C    0.002985       -0.000000 
  69  C   -0.207239       -0.000000 
  70  C   -0.058115       -0.000000 
  71  C   -0.207239       -0.000000 
  72  C   -0.201538       -0.000000 
  73  C   -0.043189       -0.000000 
  74  C   -0.201538       -0.000000 
  75  C    0.002518       -0.000000 
  76  C    0.002518       -0.000000 
  77  H    0.171559       -0.000000 
  78  H    0.171559       -0.000000 
  79  H    0.204845       -0.000000 
  80  H    0.204845       -0.000000 
  81  H    0.196574       -0.000000 
  82  H    0.196574       -0.000000 
  83  H    0.188744       -0.000000 
  84  H    0.188744       -0.000000 
  85  B    0.309047       -0.000000 
  86  B    0.243942       -0.000000 
  87  H    0.185987       -0.000000 
  88  H    0.185987       -0.000000 
  89  C   -0.144481        0.000000 
  90  C   -0.144481        0.000000 
  91  C   -0.261683       -0.000000 
  92  C   -0.138992       -0.000000 
  93  C   -0.261683       -0.000000 
  94  C    0.039810        0.000000 
  95  C    0.039810        0.000000 
  96  C   -0.217461       -0.000000 
  97  C   -0.100789        0.000000 
  98  C   -0.100789        0.000000 
  99  C   -0.217461       -0.000000 
 100  C   -0.198454        0.000000 
 101  C   -0.052463        0.000000 
 102  C   -0.052463        0.000000 
 103  C   -0.198454        0.000000 
 104  C   -0.001363        0.000000 
 105  C   -0.001363        0.000000 
 106  C   -0.241587        0.000000 
 107  C   -0.039925        0.000000 
 108  C   -0.241587        0.000000 
 109  C   -0.022697        0.000000 
 110  C   -0.022697        0.000000 
 111  H    0.252187       -0.000000 
 112  H    0.252187       -0.000000 
 113  H    0.226921       -0.000000 
 114  H    0.226921       -0.000000 
 115  C    0.030251        0.000000 
 116  C    0.030251        0.000000 
 117  C   -0.207232        0.000000 
 118  C   -0.037640        0.000000 
 119  C   -0.207232       -0.000000 
 120  C   -0.213636        0.000000 
 121  C   -0.066204       -0.000000 
 122  C   -0.213636        0.000000 
 123  C   -0.000867       -0.000000 
 124  C   -0.000867       -0.000000 
 ---------------------------------------------------
   Sum:    0.000000        0.000000 
 ---------------------------------------------------
 
*** Unpaired Electrons
 Yamaguchi Nd:         3.01
  
**************************************************
 RAS-CI total energy for state   3:  -3300.777390127835
  Excitation energy (eV) =  0.687514553390
  State symmetry: B3u   (D2h      )
  <S^2>      :  2.0000
  Dipole Moment:   -0.0000 X    -0.0000 Y     0.0000 Z
  Trans. Moment:   -0.0000 X     0.0000 Y     0.0000 Z
  Strength   :  0.000000
  Natural transition orbitals ( 1 -> 3 ):
   e-/hole pair  1:  ampl =  0.843889 ( 71.2%)   [6 : 7]
   e-/hole pair  2:  ampl =  0.208795 (  4.4%)   [5 : 8]
   Sum of square amplitudes: 0.78

 NATURAL OCCUPATION NUMBERS (higher than 1.0E-05)
            1           2           3           4           5           6
    1   2.0000000   2.0000000   2.0000000   2.0000000   2.0000000   2.0000000
            7           8           9          10          11          12
    1   2.0000000   2.0000000   2.0000000   2.0000000   2.0000000   2.0000000
           13          14          15          16          17          18
    1   2.0000000   2.0000000   2.0000000   2.0000000   2.0000000   2.0000000
           19          20          21          22          23          24
    1   2.0000000   2.0000000   2.0000000   2.0000000   2.0000000   2.0000000
           25          26          27          28          29          30
    1   2.0000000   2.0000000   2.0000000   2.0000000   2.0000000   2.0000000
           31          32          33          34          35          36
    1   2.0000000   2.0000000   2.0000000   2.0000000   2.0000000   2.0000000
           37          38          39          40          41          42
    1   2.0000000   2.0000000   2.0000000   2.0000000   2.0000000   2.0000000
           43          44          45          46          47          48
    1   2.0000000   2.0000000   2.0000000   2.0000000   2.0000000   2.0000000
           49          50          51          52          53          54
    1   2.0000000   2.0000000   2.0000000   2.0000000   2.0000000   2.0000000
           55          56          57          58          59          60
    1   2.0000000   2.0000000   2.0000000   2.0000000   2.0000000   2.0000000
           61          62          63          64          65          66
    1   2.0000000   2.0000000   2.0000000   2.0000000   2.0000000   2.0000000
           67          68          69          70          71          72
    1   2.0000000   2.0000000   2.0000000   2.0000000   2.0000000   2.0000000
           73          74          75          76          77          78
    1   2.0000000   2.0000000   2.0000000   2.0000000   2.0000000   2.0000000
           79          80          81          82          83          84
    1   2.0000000   2.0000000   2.0000000   2.0000000   2.0000000   2.0000000
           85          86          87          88          89          90
    1   2.0000000   2.0000000   2.0000000   2.0000000   2.0000000   2.0000000
           91          92          93          94          95          96
    1   2.0000000   2.0000000   2.0000000   2.0000000   2.0000000   2.0000000
           97          98          99         100         101         102
    1   2.0000000   2.0000000   2.0000000   2.0000000   2.0000000   2.0000000
          103         104         105         106         107         108
    1   2.0000000   2.0000000   2.0000000   2.0000000   2.0000000   2.0000000
          109         110         111         112         113         114
    1   2.0000000   2.0000000   2.0000000   2.0000000   2.0000000   2.0000000
          115         116         117         118         119         120
    1   2.0000000   2.0000000   2.0000000   2.0000000   2.0000000   2.0000000
          121         122         123         124         125         126
    1   2.0000000   2.0000000   2.0000000   2.0000000   2.0000000   2.0000000
          127         128         129         130         131         132
    1   2.0000000   2.0000000   2.0000000   2.0000000   2.0000000   2.0000000
          133         134         135         136         137         138
    1   2.0000000   2.0000000   2.0000000   2.0000000   2.0000000   2.0000000
          139         140         141         142         143         144
    1   2.0000000   2.0000000   2.0000000   2.0000000   2.0000000   2.0000000
          145         146         147         148         149         150
    1   2.0000000   2.0000000   2.0000000   2.0000000   2.0000000   2.0000000
          151         152         153         154         155         156
    1   2.0000000   2.0000000   2.0000000   2.0000000   2.0000000   2.0000000
          157         158         159         160         161         162
    1   2.0000000   2.0000000   2.0000000   2.0000000   2.0000000   2.0000000
          163         164         165         166         167         168
    1   2.0000000   2.0000000   2.0000000   2.0000000   2.0000000   2.0000000
          169         170         171         172         173         174
    1   2.0000000   2.0000000   2.0000000   2.0000000   2.0000000   2.0000000
          175         176         177         178         179         180
    1   2.0000000   2.0000000   2.0000000   2.0000000   2.0000000   2.0000000
          181         182         183         184         185         186
    1   2.0000000   2.0000000   2.0000000   2.0000000   2.0000000   2.0000000
          187         188         189         190         191         192
    1   2.0000000   2.0000000   2.0000000   2.0000000   2.0000000   2.0000000
          193         194         195         196         197         198
    1   2.0000000   2.0000000   2.0000000   2.0000000   2.0000000   2.0000000
          199         200         201         202         203         204
    1   2.0000000   2.0000000   2.0000000   2.0000000   2.0000000   2.0000000
          205         206         207         208         209         210
    1   2.0000000   2.0000000   2.0000000   2.0000000   2.0000000   2.0000000
          211         212         213         214         215         216
    1   2.0000000   2.0000000   2.0000000   2.0000000   2.0000000   2.0000000
          217         218         219         220         221         222
    1   2.0000000   2.0000000   2.0000000   2.0000000   2.0000000   2.0000000
          223         224         225         226         227         228
    1   2.0000000   2.0000000   2.0000000   2.0000000   2.0000000   2.0000000
          229         230         231         232         233         234
    1   2.0000000   2.0000000   2.0000000   2.0000000   2.0000000   2.0000000
          235         236         237         238         239         240
    1   2.0000000   2.0000000   2.0000000   2.0000000   2.0000000   2.0000000
          241         242         243         244         245         246
    1   1.9999999   1.9999999   1.9999999   1.9999997   1.9999997   1.9999995
          247         248         249         250         251         252
    1   1.9999995   1.9999990   1.9999988   1.9999985   1.9999983   1.9999974
          253         254         255         256         257         258
    1   1.9999971   1.9999961   1.9999940   1.9999917   1.9999881   1.9999860
          259         260         261         262         263         264
    1   1.9999835   1.9999795   1.9999769   1.9999730   1.9999619   1.9998564
          265         266         267         268         269         270
    1   1.9998444   1.9998143   1.9997995   1.9997481   1.9997442   1.9994067
          271         272         273         274         275         276
    1   1.9991794   1.9983905   1.9981057   1.9976335   1.9944719   1.9888112
          277         278         279         280         281         282
    1   1.9810476   1.9523155   1.0524916   1.0067681   1.0043010   0.9250975
          283         284         285         286         287         288
    1   0.0786860   0.0090682   0.0030914   0.0027718   0.0024639   0.0018105
          289         290         291         292         293         294
    1   0.0016459   0.0015442   0.0005806   0.0004409   0.0003442   0.0002163
          295         296         297         298         299         300
    1   0.0001856   0.0001134   0.0000768   0.0000756   0.0000503   0.0000476
          301         302         303         304         305
    1   0.0000261   0.0000244   0.0000168   0.0000150   0.0000136

 Head-Gordon Nu:    4.06
 Head-Gordon Nu_nl: 4.02

  Amplitudes : 
  
 | HOLE  | ALPHA  | BETA   | PART  |    AMPLITUDE 
--------------------------------------------------
 |       | 110100 | 110010 |       |     3.9511353094957E-01
 |       | 110100 | 101100 |       |    -1.2212963013939E-01
 |       | 110010 | 110100 |       |    -3.9511353094955E-01
 |       | 110010 | 110001 |       |    -1.6409107365964E-01
 |       | 110001 | 110010 |       |     1.6409107365966E-01
 |       | 101100 | 110100 |       |     1.2212963013941E-01
 |       | 101100 | 101010 |       |    -3.9476353877967E-01
 |       | 101010 | 101100 |       |     3.9476353877952E-01
 |       | 101010 | 101001 |       |     1.6441768964711E-01
 |       | 101001 | 101010 |       |    -1.6441768964710E-01
--------------------------------------------------
*** Contributions RASCI wfn    Active:  79.83
                                 Hole:  13.64
                                 Part:   6.53

      Mulliken population analysis 
 ---------------------------------------------------
   Atom    Charge (a.u.)   Spin (a.u.)  
 ---------------------------------------------------
   1  H    0.246399       -0.000000 
   2  H    0.246399       -0.000000 
   3  H    0.238251       -0.000000 
   4  H    0.238251       -0.000000 
   5  C   -0.004544        0.000000 
   6  C   -0.004544        0.000000 
   7  C   -0.192535        0.000000 
   8  C   -0.043565        0.000000 
   9  C   -0.192535        0.000000 
  10  C   -0.208722        0.000000 
  11  C   -0.058113        0.000000 
  12  C   -0.208722        0.000000 
  13  C    0.010075        0.000000 
  14  C    0.010075        0.000000 
  15  C    0.017071        0.000000 
  16  C    0.017071        0.000000 
  17  C   -0.066109       -0.000000 
  18  C   -0.224493        0.000000 
  19  C   -0.224493        0.000000 
  20  H    0.226921       -0.000000 
  21  C   -0.193202       -0.000000 
  22  C   -0.038543       -0.000000 
  23  H    0.226921       -0.000000 
  24  C   -0.193202       -0.000000 
  25  H    0.252187       -0.000000 
  26  C    0.013068        0.000000 
  27  C    0.013068        0.000000 
  28  H    0.252187       -0.000000 
  29  C   -0.008172       -0.000000 
  30  C   -0.008172       -0.000000 
  31  C   -0.257785        0.000000 
  32  C   -0.037694        0.000000 
  33  C   -0.257785        0.000000 
  34  H    0.188744       -0.000000 
  35  C    0.004667       -0.000000 
  36  B    0.242888        0.000000 
  37  H    0.188744       -0.000000 
  38  C    0.004667       -0.000000 
  39  C   -0.201226       -0.000000 
  40  C   -0.061100       -0.000000 
  41  C   -0.061100       -0.000000 
  42  C   -0.201226       -0.000000 
  43  H    0.196574       -0.000000 
  44  C   -0.215861       -0.000000 
  45  C   -0.098899        0.000000 
  46  C   -0.098899        0.000000 
  47  H    0.196574       -0.000000 
  48  C   -0.215861       -0.000000 
  49  H    0.204845       -0.000000 
  50  C    0.033881       -0.000000 
  51  B    0.307075       -0.000000 
  52  C    0.033881       -0.000000 
  53  H    0.204845       -0.000000 
  54  C   -0.258794       -0.000000 
  55  C   -0.136427       -0.000000 
  56  C   -0.258794       -0.000000 
  57  H    0.171559       -0.000000 
  58  C   -0.149651       -0.000000 
  59  C   -0.149651       -0.000000 
  60  H    0.171559       -0.000000 
  61  H    0.185987       -0.000000 
  62  H    0.185987       -0.000000 
  63  H    0.238251       -0.000000 
  64  H    0.238251       -0.000000 
  65  H    0.246399       -0.000000 
  66  H    0.246399       -0.000000 
  67  C    0.010075        0.000000 
  68  C    0.010075        0.000000 
  69  C   -0.208722        0.000000 
  70  C   -0.058113       -0.000000 
  71  C   -0.208722        0.000000 
  72  C   -0.192535        0.000000 
  73  C   -0.043565        0.000000 
  74  C   -0.192535        0.000000 
  75  C   -0.004544        0.000000 
  76  C   -0.004544        0.000000 
  77  H    0.171559       -0.000000 
  78  H    0.171559       -0.000000 
  79  H    0.204845       -0.000000 
  80  H    0.204845       -0.000000 
  81  H    0.196574       -0.000000 
  82  H    0.196574       -0.000000 
  83  H    0.188744       -0.000000 
  84  H    0.188744       -0.000000 
  85  B    0.307075       -0.000000 
  86  B    0.242888        0.000000 
  87  H    0.185987       -0.000000 
  88  H    0.185987       -0.000000 
  89  C   -0.149651       -0.000000 
  90  C   -0.149651       -0.000000 
  91  C   -0.258794       -0.000000 
  92  C   -0.136427       -0.000000 
  93  C   -0.258794       -0.000000 
  94  C    0.033881       -0.000000 
  95  C    0.033881       -0.000000 
  96  C   -0.215861       -0.000000 
  97  C   -0.098899        0.000000 
  98  C   -0.098899        0.000000 
  99  C   -0.215861       -0.000000 
 100  C   -0.201226       -0.000000 
 101  C   -0.061100       -0.000000 
 102  C   -0.061100       -0.000000 
 103  C   -0.201226       -0.000000 
 104  C    0.004667       -0.000000 
 105  C    0.004667       -0.000000 
 106  C   -0.257785        0.000000 
 107  C   -0.037694        0.000000 
 108  C   -0.257785        0.000000 
 109  C   -0.008172       -0.000000 
 110  C   -0.008172       -0.000000 
 111  H    0.252187       -0.000000 
 112  H    0.252187       -0.000000 
 113  H    0.226921       -0.000000 
 114  H    0.226921       -0.000000 
 115  C    0.013068        0.000000 
 116  C    0.013068        0.000000 
 117  C   -0.193202       -0.000000 
 118  C   -0.038543        0.000000 
 119  C   -0.193202       -0.000000 
 120  C   -0.224493        0.000000 
 121  C   -0.066109       -0.000000 
 122  C   -0.224493        0.000000 
 123  C    0.017071        0.000000 
 124  C    0.017071        0.000000 
 ---------------------------------------------------
   Sum:    0.000000        0.000000 
 ---------------------------------------------------
 
*** Unpaired Electrons
 Yamaguchi Nd:         4.37
  
**************************************************
 RAS-CI total energy for state   4:  -3300.768630703000
  Excitation energy (eV) =  0.925870630321
  State symmetry: B2u   (D2h      )
  <S^2>      :  2.0000
  Dipole Moment:    0.0000 X    -0.0000 Y     0.0000 Z
  Trans. Moment:   -0.0000 X     0.0000 Y    -0.0000 Z
  Strength   :  0.000000
  Natural transition orbitals ( 1 -> 4 ):
   e-/hole pair  1:  ampl =  0.411784 ( 17.0%)   [6 : 7]
   e-/hole pair  2:  ampl =  0.355630 ( 12.6%)   [5 : 8]
   Sum of square amplitudes: 0.35

 NATURAL OCCUPATION NUMBERS (higher than 1.0E-05)
            1           2           3           4           5           6
    1   2.0000000   2.0000000   2.0000000   2.0000000   2.0000000   2.0000000
            7           8           9          10          11          12
    1   2.0000000   2.0000000   2.0000000   2.0000000   2.0000000   2.0000000
           13          14          15          16          17          18
    1   2.0000000   2.0000000   2.0000000   2.0000000   2.0000000   2.0000000
           19          20          21          22          23          24
    1   2.0000000   2.0000000   2.0000000   2.0000000   2.0000000   2.0000000
           25          26          27          28          29          30
    1   2.0000000   2.0000000   2.0000000   2.0000000   2.0000000   2.0000000
           31          32          33          34          35          36
    1   2.0000000   2.0000000   2.0000000   2.0000000   2.0000000   2.0000000
           37          38          39          40          41          42
    1   2.0000000   2.0000000   2.0000000   2.0000000   2.0000000   2.0000000
           43          44          45          46          47          48
    1   2.0000000   2.0000000   2.0000000   2.0000000   2.0000000   2.0000000
           49          50          51          52          53          54
    1   2.0000000   2.0000000   2.0000000   2.0000000   2.0000000   2.0000000
           55          56          57          58          59          60
    1   2.0000000   2.0000000   2.0000000   2.0000000   2.0000000   2.0000000
           61          62          63          64          65          66
    1   2.0000000   2.0000000   2.0000000   2.0000000   2.0000000   2.0000000
           67          68          69          70          71          72
    1   2.0000000   2.0000000   2.0000000   2.0000000   2.0000000   2.0000000
           73          74          75          76          77          78
    1   2.0000000   2.0000000   2.0000000   2.0000000   2.0000000   2.0000000
           79          80          81          82          83          84
    1   2.0000000   2.0000000   2.0000000   2.0000000   2.0000000   2.0000000
           85          86          87          88          89          90
    1   2.0000000   2.0000000   2.0000000   2.0000000   2.0000000   2.0000000
           91          92          93          94          95          96
    1   2.0000000   2.0000000   2.0000000   2.0000000   2.0000000   2.0000000
           97          98          99         100         101         102
    1   2.0000000   2.0000000   2.0000000   2.0000000   2.0000000   2.0000000
          103         104         105         106         107         108
    1   2.0000000   2.0000000   2.0000000   2.0000000   2.0000000   2.0000000
          109         110         111         112         113         114
    1   2.0000000   2.0000000   2.0000000   2.0000000   2.0000000   2.0000000
          115         116         117         118         119         120
    1   2.0000000   2.0000000   2.0000000   2.0000000   2.0000000   2.0000000
          121         122         123         124         125         126
    1   2.0000000   2.0000000   2.0000000   2.0000000   2.0000000   2.0000000
          127         128         129         130         131         132
    1   2.0000000   2.0000000   2.0000000   2.0000000   2.0000000   2.0000000
          133         134         135         136         137         138
    1   2.0000000   2.0000000   2.0000000   2.0000000   2.0000000   2.0000000
          139         140         141         142         143         144
    1   2.0000000   2.0000000   2.0000000   2.0000000   2.0000000   2.0000000
          145         146         147         148         149         150
    1   2.0000000   2.0000000   2.0000000   2.0000000   2.0000000   2.0000000
          151         152         153         154         155         156
    1   2.0000000   2.0000000   2.0000000   2.0000000   2.0000000   2.0000000
          157         158         159         160         161         162
    1   2.0000000   2.0000000   2.0000000   2.0000000   2.0000000   2.0000000
          163         164         165         166         167         168
    1   2.0000000   2.0000000   2.0000000   2.0000000   2.0000000   2.0000000
          169         170         171         172         173         174
    1   2.0000000   2.0000000   2.0000000   2.0000000   2.0000000   2.0000000
          175         176         177         178         179         180
    1   2.0000000   2.0000000   2.0000000   2.0000000   2.0000000   2.0000000
          181         182         183         184         185         186
    1   2.0000000   2.0000000   2.0000000   2.0000000   2.0000000   2.0000000
          187         188         189         190         191         192
    1   2.0000000   2.0000000   2.0000000   2.0000000   2.0000000   2.0000000
          193         194         195         196         197         198
    1   2.0000000   2.0000000   2.0000000   2.0000000   2.0000000   2.0000000
          199         200         201         202         203         204
    1   2.0000000   2.0000000   2.0000000   2.0000000   2.0000000   2.0000000
          205         206         207         208         209         210
    1   2.0000000   2.0000000   2.0000000   2.0000000   2.0000000   2.0000000
          211         212         213         214         215         216
    1   2.0000000   2.0000000   2.0000000   2.0000000   2.0000000   2.0000000
          217         218         219         220         221         222
    1   2.0000000   2.0000000   2.0000000   2.0000000   2.0000000   2.0000000
          223         224         225         226         227         228
    1   2.0000000   2.0000000   2.0000000   2.0000000   2.0000000   2.0000000
          229         230         231         232         233         234
    1   2.0000000   2.0000000   2.0000000   2.0000000   2.0000000   2.0000000
          235         236         237         238         239         240
    1   2.0000000   2.0000000   2.0000000   2.0000000   2.0000000   2.0000000
          241         242         243         244         245         246
    1   1.9999999   1.9999998   1.9999996   1.9999995   1.9999993   1.9999992
          247         248         249         250         251         252
    1   1.9999990   1.9999988   1.9999986   1.9999978   1.9999976   1.9999976
          253         254         255         256         257         258
    1   1.9999953   1.9999939   1.9999925   1.9999913   1.9999849   1.9999847
          259         260         261         262         263         264
    1   1.9999774   1.9999694   1.9999616   1.9999569   1.9999374   1.9999199
          265         266         267         268         269         270
    1   1.9998589   1.9998403   1.9997444   1.9996918   1.9995235   1.9992223
          271         272         273         274         275         276
    1   1.9990642   1.9982703   1.9981808   1.9980244   1.9934510   1.9933679
          277         278         279         280         281         282
    1   1.9806866   1.9598428   1.2218684   1.1864501   0.8514175   0.7242732
          283         284         285         286         287         288
    1   0.0703384   0.0111631   0.0039717   0.0031382   0.0030102   0.0013546
          289         290         291         292         293         294
    1   0.0010661   0.0010190   0.0008454   0.0002967   0.0002638   0.0002182
          295         296         297         298         299         300
    1   0.0001972   0.0001584   0.0001532   0.0001229   0.0000774   0.0000386
          301         302         303         304
    1   0.0000346   0.0000155   0.0000113   0.0000101

 Head-Gordon Nu:    3.35
 Head-Gordon Nu_nl: 3.67

  Amplitudes : 
  
 | HOLE  | ALPHA  | BETA   | PART  |    AMPLITUDE 
--------------------------------------------------
 |       | 111000 | 110010 |       |    -2.3829026041760E-01
 |       | 111000 | 101100 |       |     4.0067634801541E-01
 |       | 111000 | 101001 |       |     1.1194192692688E-01
 |       | 110010 | 111000 |       |     2.3829026041760E-01
 |       | 110010 | 100110 |       |     1.8813203350562E-01
 |       | 110010 | 100011 |       |    -1.2008430164244E-01
 |       | 101100 | 111000 |       |    -4.0067634801540E-01
 |       | 101100 | 100110 |       |    -2.5740294046546E-01
 |       | 101100 | 100011 |       |     1.4032366224496E-01
 |       | 101001 | 111000 |       |    -1.1194192692688E-01
 |       | 101001 | 100110 |       |    -1.7012936446423E-01
 |       | 100110 | 110010 |       |    -1.8813203350562E-01
 |       | 100110 | 101100 |       |     2.5740294046547E-01
 |       | 100110 | 101001 |       |     1.7012936446424E-01
 |       | 100011 | 110010 |       |     1.2008430164244E-01
 |       | 100011 | 101100 |       |    -1.4032366224496E-01
[...]
  2.615   2.617   2.617   2.623   2.626   2.632   2.632   2.634
 86 B2g 186 B1g 187 B2u 188 B2u 212 B3u 187 B1g  69 Au   70 B3g                
  2.640   2.646   2.647   2.648   2.650   2.655   2.656   2.668
214 Ag   71 B3g  70 Au  213 B3u 215 Ag  214 B3u 189 B2u  88 B1u                
  2.669   2.671   2.671   2.675   2.677   2.684   2.685   2.685
 87 B2g 216 Ag   88 B2g 188 B1g  89 B1u 190 B2u  89 B2g  90 B1u                
  2.686   2.691   2.694   2.698   2.708   2.708   2.716   2.716
 90 B2g 215 B3u 189 B1g 216 B3u 217 Ag  191 B2u  71 Au   72 B3g                
  2.721   2.722   2.726   2.734   2.735   2.735   2.735   2.735
190 B1g  91 B1u  91 B2g 192 B2u 218 Ag   72 Au  217 B3u  73 B3g                
  2.735   2.753   2.756   2.768   2.779   2.784   2.788   2.790
191 B1g 193 B2u 219 Ag  218 B3u 220 Ag   74 B3g 192 B1g 194 B2u                
  2.793   2.794   2.806   2.818   2.821   2.822   2.824   2.840
 73 Au  219 B3u 193 B1g 220 B3u  74 Au   75 B3g 221 Ag   75 Au                 
  2.845   2.846   2.847   2.864   2.867   2.872   2.872   2.874
195 B2u 221 B3u  76 B3g 222 Ag  222 B3u 194 B1g  92 B1u  76 Au                 
  2.882   2.886   2.893   2.900   2.914   2.918   2.919   2.925
196 B2u 223 Ag   92 B2g 223 B3u 224 Ag   77 B3g  93 B1u  93 B2g                
  2.929   2.938   2.940   2.953   2.953   2.964   2.969   2.971
 94 B1u 195 B1g 197 B2u  77 Au  224 B3u  94 B2g 196 B1g 225 Ag                 
  2.971   2.975   2.980   2.980   2.994   2.997   2.999   3.001
 78 B3g 226 Ag  198 B2u  78 Au   79 B3g 225 B3u  95 B1u  79 Au                 
  3.009   3.009   3.010   3.010   3.013   3.018   3.025   3.033
227 Ag  197 B1g 228 Ag  226 B3u 199 B2u  95 B2g 198 B1g  80 B3g                
  3.034   3.044   3.052   3.055   3.058   3.058   3.072   3.077
 80 Au  227 B3u 229 Ag  200 B2u  96 B1u  96 B2g 230 Ag  201 B2u                
  3.087   3.096   3.101   3.105   3.109   3.112   3.119   3.123
228 B3u 199 B1g 229 B3u 231 Ag  200 B1g 202 B2u 201 B1g 203 B2u                
  3.124   3.126   3.127   3.136   3.141   3.142   3.143   3.146
230 B3u 232 Ag  202 B1g 233 Ag  204 B2u 231 B3u 205 B2u 234 Ag                 
  3.150   3.150   3.152   3.160   3.167   3.167   3.179   3.181
232 B3u 203 B1g 235 Ag  236 Ag  204 B1g 233 B3u 206 B2u 234 B3u                
  3.183   3.191   3.198   3.203   3.204   3.211   3.216   3.221
205 B1g 237 Ag  235 B3u 238 Ag  207 B2u 206 B1g 208 B2u 207 B1g                
  3.229   3.230   3.236   3.237   3.239   3.243   3.250   3.261
209 B2u 236 B3u 239 Ag  237 B3u 208 B1g 240 Ag  210 B2u 238 B3u                
  3.265   3.286   3.287   3.288   3.294   3.294   3.298   3.303
209 B1g 211 B2u 241 Ag  239 B3u 242 Ag  240 B3u 210 B1g 212 B2u                
  3.313   3.339   3.350   3.352   3.363   3.365   3.372   3.377
211 B1g 213 B2u 212 B1g 241 B3u 243 Ag  242 B3u 214 B2u 213 B1g                
  3.406   3.418   3.421   3.439   3.446   3.454   3.456   3.479
244 Ag  243 B3u 245 Ag  215 B2u 214 B1g 215 B1g 244 B3u 216 B2u                
  3.487   3.498   3.518   3.522   3.523   3.533   3.535   3.541
246 Ag  245 B3u 216 B1g 247 Ag  246 B3u 248 Ag  217 B2u 247 B3u                
  3.557   3.562   3.580   3.613   3.640   3.640   3.661   3.677
217 B1g 248 B3u 249 Ag  250 Ag  249 B3u 218 B2u 250 B3u 218 B1g                
  3.693   3.697   3.726   3.743   3.773   3.795   3.823   3.824
219 B2u 219 B1g 251 Ag  220 B2u 251 B3u 252 Ag  220 B1g 252 B3u                
  3.863   3.894   3.899   3.938   3.943   3.967   3.975   3.987
253 Ag  221 B2u 253 B3u 254 Ag  221 B1g 254 B3u 222 B2u 222 B1g                
  4.264   4.264   4.382   4.382   4.434   4.443   4.448   4.455
255 Ag  255 B3u 256 Ag  256 B3u 257 Ag  257 B3u 258 Ag  223 B2u                
  4.467   4.472   4.476   4.487   4.494   4.494   4.498   4.509
258 B3u 223 B1g 259 Ag  224 B2u 224 B1g 259 B3u 260 Ag  225 B2u                
  4.517   4.522   4.524   4.527   4.527   4.533   4.533   4.535
260 B3u 225 B1g 261 Ag  261 B3u 262 Ag  226 B2u 226 B1g 262 B3u                
  4.535   4.541   4.552   4.562   4.563   4.563   4.571   4.587
227 B2u 263 Ag  227 B1g 263 B3u 228 B2u 264 Ag  264 B3u 228 B1g                
  4.587   4.589   4.593   4.599   4.603   4.614   4.629   4.647
265 Ag  229 B2u 265 B3u 229 B1g 230 B2u 230 B1g 231 B2u 266 Ag                 
  4.648   4.651   4.669   4.674   4.678   4.706   4.707   4.710
231 B1g 266 B3u 267 Ag  267 B3u 232 B2u 268 Ag  269 Ag  232 B1g                
  4.716   4.731   4.732   4.736   4.741   4.749   4.754   4.761
268 B3u 270 Ag  269 B3u 233 B2u 270 B3u 271 Ag  271 B3u 233 B1g                
  4.766   4.793   4.803   4.832   4.862   4.875   4.895   4.920
272 Ag  234 B2u 272 B3u 234 B1g 235 B2u 273 Ag  235 B1g 273 B3u                
  4.920   4.927   4.955   4.960   4.982   5.006   5.006   5.008
274 Ag  236 B2u 236 B1g 274 B3u 237 B2u 237 B1g 238 B2u 238 B1g                
  5.011   5.011   5.038   5.044   5.051   5.138   5.177   5.179
275 Ag  275 B3u 239 B2u 239 B1g 276 Ag  276 B3u 277 Ag  277 B3u                
  5.223   5.283   5.283   5.293   5.348   5.387   5.422   5.431
278 Ag  240 B2u 240 B1g 278 B3u 279 Ag  279 B3u 280 Ag  280 B3u                
 --------------------------------------------------------------
 
          Ground-State Mulliken Net Atomic Charges

     Atom                 Charge (a.u.)
  ----------------------------------------
      1 H                     0.246399
      2 H                     0.246399
      3 H                     0.238251
      4 H                     0.238251
      5 C                    -0.000144
      6 C                    -0.000144
      7 C                    -0.173882
      8 C                    -0.045629
      9 C                    -0.173882
     10 C                    -0.199780
     11 C                    -0.058135
     12 C                    -0.199780
     13 C                     0.025820
     14 C                     0.025820
     15 C                     0.048628
     16 C                     0.048628
     17 C                    -0.066027
     18 C                    -0.225961
     19 C                    -0.225961
     20 H                     0.226921
     21 C                    -0.153846
     22 C                    -0.059019
     23 H                     0.226921
     24 C                    -0.153846
     25 H                     0.252187
     26 C                     0.011517
     27 C                     0.011517
     28 H                     0.252187
     29 C                     0.043166
     30 C                     0.043166
     31 C                    -0.295376
     32 C                    -0.089387
     33 C                    -0.295376
     34 H                     0.188744
     35 C                     0.048678
     36 B                     0.108246
     37 H                     0.188744
     38 C                     0.048678
     39 C                    -0.189045
     40 C                    -0.073026
     41 C                    -0.073026
     42 C                    -0.189045
     43 H                     0.196574
     44 C                    -0.195449
     45 C                    -0.144875
     46 C                    -0.144875
     47 H                     0.196574
     48 C                    -0.195449
     49 H                     0.204845
     50 C                     0.082317
     51 B                     0.203473
     52 C                     0.082317
     53 H                     0.204845
     54 C                    -0.317312
     55 C                    -0.190489
     56 C                    -0.317312
     57 H                     0.171559
     58 C                    -0.104411
     59 C                    -0.104411
     60 H                     0.171559
     61 H                     0.185987
     62 H                     0.185987
     63 H                     0.238251
     64 H                     0.238251
     65 H                     0.246399
     66 H                     0.246399
     67 C                     0.025820
     68 C                     0.025820
     69 C                    -0.199780
     70 C                    -0.058135
     71 C                    -0.199780
     72 C                    -0.173882
     73 C                    -0.045629
     74 C                    -0.173882
     75 C                    -0.000144
     76 C                    -0.000144
     77 H                     0.171559
     78 H                     0.171559
     79 H                     0.204845
     80 H                     0.204845
     81 H                     0.196574
     82 H                     0.196574
     83 H                     0.188744
     84 H                     0.188744
     85 B                     0.203473
     86 B                     0.108246
     87 H                     0.185987
     88 H                     0.185987
     89 C                    -0.104411
     90 C                    -0.104411
     91 C                    -0.317312
     92 C                    -0.190489
     93 C                    -0.317312
     94 C                     0.082317
     95 C                     0.082317
     96 C                    -0.195449
     97 C                    -0.144875
     98 C                    -0.144875
     99 C                    -0.195449
    100 C                    -0.189045
    101 C                    -0.073026
    102 C                    -0.073026
    103 C                    -0.189045
    104 C                     0.048678
    105 C                     0.048678
    106 C                    -0.295376
    107 C                    -0.089387
    108 C                    -0.295376
    109 C                     0.043166
    110 C                     0.043166
    111 H                     0.252187
    112 H                     0.252187
    113 H                     0.226921
    114 H                     0.226921
    115 C                     0.011517
    116 C                     0.011517
    117 C                    -0.153846
    118 C                    -0.059019
    119 C                    -0.153846
    120 C                    -0.225961
    121 C                    -0.066027
    122 C                    -0.225961
    123 C                     0.048628
    124 C                     0.048628
  ----------------------------------------
  Sum of atomic charges =     0.000000

 -----------------------------------------------------------------
                    Cartesian Multipole Moments
 -----------------------------------------------------------------
    Charge (ESU x 10^10)
                 0.0000
    Dipole Moment (Debye)
         X       0.0000      Y      -0.0000      Z      -0.0000
       Tot       0.0000
    Quadrupole Moments (Debye-Ang)
        XX    -981.3801     XY      -0.0000     YY    -404.4292
        XZ       0.0000     YZ      -0.0000     ZZ    -527.4328
    Octopole Moments (Debye-Ang^2)
       XXX       0.0000    XXY      -0.0000    XYY       0.0000
       YYY      -0.0000    XXZ      -0.0000    XYZ       0.0000
       YYZ      -0.0000    XZZ      -0.0000    YZZ      -0.0000
       ZZZ      -0.0000
    Hexadecapole Moments (Debye-Ang^3)
      XXXX -395648.6463   XXXY      -0.0000   XXYY  -48675.1448
      XYYY       0.0000   YYYY  -12105.2597   XXXZ       0.0000
      XXYZ      -0.0000   XYYZ      -0.0000   YYYZ      -0.0000
      XXZZ  -56758.3248   XYZZ      -0.0000   YYZZ   -2636.5403
      XZZZ      -0.0000   YZZZ       0.0000   ZZZZ    -579.5313
 -----------------------------------------------------------------
 Total job time:  82241.79s(wall), 76744.92s(cpu) 
 Wed Apr 17 07:18:39 2024

======= MOLDEN-FORMATTED INPUT FILE FOLLOWS =======
[Molden Format]
[Atoms] (Angs)
  H      1    1     -3.34623000     -3.39547200      0.00000000
  H      2    1     -3.34623000      3.39547200     -0.00000000
  H      3    1     -0.96527900     -3.39587900      0.00000000
  H      4    1     -0.96527900      3.39587900     -0.00000000
  C      5    6     -3.59436400     -1.23272500      0.00000000
  C      6    6     -3.59436400      1.23272500     -0.00000000
  C      7    6     -2.83894000     -2.43955000      0.00000000
  C      8    6     -2.87478100     -0.00000000     -0.00000000
  C      9    6     -2.83894000      2.43955000     -0.00000000
  C     10    6     -1.47260300     -2.43966200      0.00000000
  C     11    6     -1.43436600     -0.00000000     -0.00000000
  C     12    6     -1.47260300      2.43966200     -0.00000000
  C     13    6     -0.71648300     -1.23373900      0.00000000
  C     14    6     -0.71648300      1.23373900     -0.00000000
  C     15    6      5.02847300     -1.23196100      0.00000000
  C     16    6      5.02847300      1.23196100     -0.00000000
  C     17    6      5.75217500      0.00000000      0.00000000
  C     18    6      5.77588000     -2.44023700      0.00000000
  C     19    6      5.77588000      2.44023700     -0.00000000
  H     20    1      5.26386700     -3.39407800      0.00000000
  C     21    6      7.14311800     -2.44686500      0.00000000
  C     22    6      7.19438600      0.00000000      0.00000000
  H     23    1      5.26386700      3.39407800     -0.00000000
  C     24    6      7.14311800      2.44686500     -0.00000000
  H     25    1      7.64997600     -3.40300100      0.00000000
  C     26    6      7.90673500     -1.24927600      0.00000000
  C     27    6      7.90673500      1.24927600     -0.00000000
  H     28    1      7.64997600      3.40300100     -0.00000000
  C     29    6      9.34919200     -1.25276000      0.00000000
  C     30    6      9.34919200      1.25276000     -0.00000000
  C     31    6     10.10805100     -2.47580500      0.00000000
  C     32    6     10.02464800      0.00000000      0.00000000
  C     33    6     10.10805100      2.47580500     -0.00000000
  H     34    1      9.57321800     -3.42033000      0.00000000
  C     35    6     11.51249800     -2.54713000      0.00000000
  B     36    5     11.52604000      0.00000000      0.00000000
  H     37    1      9.57321800      3.42033000     -0.00000000
  C     38    6     11.51249800      2.54713000     -0.00000000
  C     39    6     12.26740000     -3.77870100      0.00000000
  C     40    6     12.26325600     -1.33007000      0.00000000
  C     41    6     12.26325600      1.33007000     -0.00000000
  C     42    6     12.26740000      3.77870100     -0.00000000
  H     43    1     11.73400100     -4.72719600      0.00000000
  C     44    6     13.64266900     -3.77702800      0.00000000
  C     45    6     13.66271000     -1.33663200      0.00000000
  C     46    6     13.66271000      1.33663200     -0.00000000
  H     47    1     11.73400100      4.72719600     -0.00000000
  C     48    6     13.64266900      3.77702800     -0.00000000
  H     49    1     14.17663100     -4.72497200      0.00000000
  C     50    6     14.39661400     -2.54801500      0.00000000
  B     51    5     14.40698300      0.00000000      0.00000000
  C     52    6     14.39661400      2.54801500     -0.00000000
  H     53    1     14.17663100      4.72497200     -0.00000000
  C     54    6     15.82640500     -2.47198500      0.00000000
  C     55    6     15.92857800     -0.00000000      0.00000000
  C     56    6     15.82640500      2.47198500     -0.00000000
  H     57    1     16.38565300     -3.40578400      0.00000000
  C     58    6     16.55454700     -1.27310400      0.00000000
  C     59    6     16.55454700      1.27310400      0.00000000
  H     60    1     16.38565300      3.40578400     -0.00000000
  H     61    1     17.64308300     -1.35132900      0.00000000
  H     62    1     17.64308300      1.35132900      0.00000000
  H     63    1      0.96527900     -3.39587900      0.00000000
  H     64    1      0.96527900      3.39587900     -0.00000000
  H     65    1      3.34623000     -3.39547200      0.00000000
  H     66    1      3.34623000      3.39547200     -0.00000000
  C     67    6      0.71648300     -1.23373900      0.00000000
  C     68    6      0.71648300      1.23373900     -0.00000000
  C     69    6      1.47260300     -2.43966200      0.00000000
  C     70    6      1.43436600      0.00000000      0.00000000
  C     71    6      1.47260300      2.43966200     -0.00000000
  C     72    6      2.83894000     -2.43955000      0.00000000
  C     73    6      2.87478100      0.00000000      0.00000000
  C     74    6      2.83894000      2.43955000     -0.00000000
  C     75    6      3.59436400     -1.23272500      0.00000000
  C     76    6      3.59436400      1.23272500     -0.00000000
  H     77    1    -16.38565300     -3.40578400      0.00000000
  H     78    1    -16.38565300      3.40578400     -0.00000000
  H     79    1    -14.17663100     -4.72497200      0.00000000
  H     80    1    -14.17663100      4.72497200     -0.00000000
  H     81    1    -11.73400100     -4.72719600      0.00000000
  H     82    1    -11.73400100      4.72719600     -0.00000000
  H     83    1     -9.57321800     -3.42033000      0.00000000
  H     84    1     -9.57321800      3.42033000     -0.00000000
  B     85    5    -14.40698300      0.00000000     -0.00000000
  B     86    5    -11.52604000     -0.00000000     -0.00000000
  H     87    1    -17.64308300     -1.35132900     -0.00000000
  H     88    1    -17.64308300      1.35132900     -0.00000000
  C     89    6    -16.55454700     -1.27310400     -0.00000000
  C     90    6    -16.55454700      1.27310400     -0.00000000
  C     91    6    -15.82640500     -2.47198500      0.00000000
  C     92    6    -15.92857800      0.00000000     -0.00000000
  C     93    6    -15.82640500      2.47198500     -0.00000000
  C     94    6    -14.39661400     -2.54801500      0.00000000
  C     95    6    -14.39661400      2.54801500     -0.00000000
  C     96    6    -13.64266900     -3.77702800      0.00000000
  C     97    6    -13.66271000     -1.33663200      0.00000000
  C     98    6    -13.66271000      1.33663200     -0.00000000
  C     99    6    -13.64266900      3.77702800     -0.00000000
  C    100    6    -12.26740000     -3.77870100      0.00000000
  C    101    6    -12.26325600     -1.33007000      0.00000000
  C    102    6    -12.26325600      1.33007000     -0.00000000
  C    103    6    -12.26740000      3.77870100     -0.00000000
  C    104    6    -11.51249800     -2.54713000      0.00000000
  C    105    6    -11.51249800      2.54713000     -0.00000000
  C    106    6    -10.10805100     -2.47580500      0.00000000
  C    107    6    -10.02464800      0.00000000     -0.00000000
  C    108    6    -10.10805100      2.47580500     -0.00000000
  C    109    6     -9.34919200     -1.25276000      0.00000000
  C    110    6     -9.34919200      1.25276000     -0.00000000
  H    111    1     -7.64997600     -3.40300100      0.00000000
  H    112    1     -7.64997600      3.40300100     -0.00000000
  H    113    1     -5.26386700     -3.39407800      0.00000000
  H    114    1     -5.26386700      3.39407800     -0.00000000
  C    115    6     -7.90673500     -1.24927600      0.00000000
  C    116    6     -7.90673500      1.24927600     -0.00000000
  C    117    6     -7.14311800     -2.44686500      0.00000000
  C    118    6     -7.19438600      0.00000000     -0.00000000
  C    119    6     -7.14311800      2.44686500     -0.00000000
  C    120    6     -5.77588000     -2.44023700      0.00000000
  C    121    6     -5.75217500      0.00000000     -0.00000000
  C    122    6     -5.77588000      2.44023700     -0.00000000
  C    123    6     -5.02847300     -1.23196100      0.00000000
  C    124    6     -5.02847300      1.23196100     -0.00000000

======= END OF MOLDEN-FORMATTED INPUT FILE =======


        *************************************************************
        *                                                           *
        *  Thank you very much for using Q-Chem.  Have a nice day.  *
        *                                                           *
        *************************************************************


