                  Welcome to Q-Chem
     A Quantum Leap Into The Future Of Chemistry


 Q-Chem 6.0 (devel), Q-Chem, Inc., Pleasanton, CA (2022)

 E. Epifanovsky,  A. T. B. Gilbert,  Xintian Feng,  Joonho Lee,  Yuezhi Mao,  
 N. Mardirossian,  P. Pokhilko,  A. White,  M. Wormit,  M. P. Coons,  
 A. L. Dempwolff,  Zhengting Gan,  D. Hait,  P. R. Horn,  L. D. Jacobson,  
 I. Kaliman,  J. Kussmann,  A. W. Lange,  Ka Un Lao,  D. S. Levine,  Jie Liu,  
 S. C. McKenzie,  A. F. Morrison,  K. Nanda,  F. Plasser,  D. R. Rehn,  
 M. L. Vidal,  Zhi-Qiang You,  Ying Zhu,  B. Alam,  B. Albrecht,  
 A. Aldossary,  E. Alguire,  J. H. Andersen,  V. Athavale,  D. Barton,  
 K. Begam,  A. Behn,  N. Bellonzi,  Y. A. Bernard,  E. J. Berquist,  
 H. Burton,  A. Carreras,  K. Carter-Fenk,  Romit Chakraborty,  
 Chandrima Chakravarty,  Junhan Chen,  A. D. Chien,  K. D. Closser,  
 V. Cofer-Shabica,  L. Cunha,  S. Dasgupta,  Jia Deng,  M. de Wergifosse,  
 M. Diedenhofen,  Hainam Do,  S. Ehlert,  Po-Tung Fang,  S. Fatehi,  
 Qingguo Feng,  T. Friedhoff,  B. Ganoe,  J. Gayvert,  Qinghui Ge,  
 G. Gidofalvi,  M. Goldey,  J. Gomes,  C. Gonzalez-Espinoza,  S. Gulania,  
 A. Gunina,  J. A. Gyamfi,  M. W. D. Hanson-Heine,  P. H. P. Harbach,  
 A. W. Hauser,  M. F. Herbst,  M. Hernandez Vera,  M. Hodecker,  
 Z. C. Holden,  S. Houck,  Xunkun Huang,  Kerwin Hui,  B. C. Huynh,  
 K. Ikeda,  M. Ivanov,  Hyunjun Ji,  Zuxin Jin,  Hanjie Jiang,  B. Kaduk,  
 S. Kaehler,  R. Kang,  K. Khistyaev,  Jaehoon Kim,  Yongbin Kim,  
 P. Klunzinger,  Z. Koczor-Benda,  Joong Hoon Koh,  D. Kosenkov,  
 Saikiran Kotaru,  L. Koulias,  T. Kowalczyk,  C. M. Krauter,  K. Kue,  
 A. Kunitsa,  T. Kus,  A. Landau,  K. V. Lawler,  D. Lefrancois,  S. Lehtola,  
 Rain Li,  Shaozhi Li,  Yi-Pei Li,  Jiashu Liang,  M. Liebenthal,  
 Hung-Hsuan Lin,  You-Sheng Lin,  Fenglai Liu,  Kuan-Yu Liu,  
 M. Loipersberger,  A. Luenser,  C. Malbon,  A. Manjanath,  P. Manohar,  
 E. Mansoor,  S. F. Manzer,  Shan-Ping Mao,  A. V. Marenich,  T. Markovich,  
 S. Mason,  F. Matz,  S. A. Maurer,  P. F. McLaughlin,  M. F. S. J. Menger,  
 J.-M. Mewes,  S. A. Mewes,  P. Morgante,  Mohammad Mostafanejad,  
 J. W. Mullinax,  K. J. Oosterbaan,  G. Paran,  V. Parravicini,  
 Alexander C. Paul,  Suranjan K. Paul,  F. Pavosevic,  Zheng Pei,  S. Prager,  
 E. I. Proynov,  E. Ramos,  B. Rana,  A. E. Rask,  A. Rettig,  R. M. Richard,  
 F. Rob,  E. Rossomme,  T. Scheele,  M. Scheurer,  M. Schneider,  
 P. E. Schneider,  N. Sergueev,  S. M. Sharada,  Hengyuan Shen,  
 W. Skomorowski,  D. W. Small,  C. J. Stein,  Yingli Su,  Yu-Chuan Su,  
 E. J. Sundstrom,  Zhen Tao,  J. Thirman,  Hung-Yi Tsai,  T. Tsuchimochi,  
 N. M. Tubman,  C. Utku,  S. P. Veccham,  O. Vydrov,  J. Wenzel,  
 Jonathan Wong,  J. Witte,  A. Yamada,  Chou-Hsun Yang,  Kun Yao,  
 S. Yeganeh,  S. R. Yost,  A. Zech,  F. Zeller,  Igor Ying Zhang,  
 Xing Zhang,  Yu Zhang,  D. Zuev,  A. Aspuru-Guzik,  A. T. Bell,  
 N. A. Besley,  K. B. Bravaya,  B. R. Brooks,  D. Casanova,  Jeng-Da Chai,  
 Hsing-Ta Chen,  S. Coriani,  C. J. Cramer,  A. E. DePrince, III,  
 R. A. DiStasio Jr.,  A. Dreuw,  B. D. Dunietz,  T. R. Furlani,  
 W. A. Goddard III,  S. Grimme,  S. Hammes-Schiffer,  T. Head-Gordon,  
 W. J. Hehre,  Chao-Ping Hsu,  T.-C. Jagau,  Yousung Jung,  A. Klamt,  
 Jing Kong,  D. S. Lambrecht,  Xiangyuan Li,  WanZhen Liang,  N. J. Mayhall,  
 C. W. McCurdy,  J. B. Neaton,  T. Neudecker,  C. Ochsenfeld,  
 J. A. Parkhill,  R. Peverati,  V. A. Rassolov,  Haisheng Ren,  Yihan Shao,  
 L. V. Slipchenko,  R. P. Steele,  J. E. Subotnik,  A. J. W. Thom,  
 A. Tkatchenko,  D. G. Truhlar,  T. Van Voorhis,  Fan Wang,  
 T. A. Wesolowski,  K. B. Whaley,  H. L. Woodcock III,  P. M. Zimmerman,  
 S. Faraji,  P. M. W. Gill,  M. Head-Gordon,  J. M. Herbert,  A. I. Krylov

 Contributors to earlier versions of Q-Chem not listed above: 
 R. D. Adamson,  B. Austin,  R. Baer,  J. Baker,  G. J. O. Beran,  
 K. Brandhorst,  S. T. Brown,  E. F. C. Byrd,  Arup K. Chakraborty,  
 G. K. L. Chan,  Chun-Min Chang,  Yunqing Chen,  C.-L. Cheng,  
 Siu Hung Chien,  D. M. Chipman,  D. L. Crittenden,  H. Dachsel,  
 R. J. Doerksen,  A. D. Dutoi,  R. G. Edgar,  J. Fosso-Tande,  
 L. Fusti-Molnar,  D. Ghosh,  A. Ghysels,  A. Golubeva-Zadorozhnaya,  
 J. Gonthier,  M. S. Gordon,  S. R. Gwaltney,  G. Hawkins,  J. E. Herr,  
 A. Heyden,  S. Hirata,  E. G. Hohenstein,  G. Kedziora,  F. J. Keil,  
 C. Kelley,  Jihan Kim,  R. A. King,  R. Z. Khaliullin,  P. P. Korambath,  
 W. Kurlancheek,  A. Laurent,  A. M. Lee,  M. S. Lee,  S. V. Levchenko,  
 Ching Yeh Lin,  D. Liotard,  E. Livshits,  R. C. Lochan,  I. Lotan,  
 L. A. Martinez-Martinez,  P. E. Maslen,  N. Nair,  D. P. O'Neill,  
 D. Neuhauser,  E. Neuscamman,  C. M. Oana,  R. Olivares-Amaya,  R. Olson,  
 T. M. Perrine,  B. Peters,  P. A. Pieniazek,  A. Prociuk,  Y. M. Rhee,  
 J. Ritchie,  M. A. Rohrdanz,  E. Rosta,  N. J. Russ,  H. F. Schaefer III,  
 M. W. Schmidt,  N. E. Schultz,  S. Sharma,  N. Shenvi,  C. D. Sherrill,  
 A. C. Simmonett,  A. Sodt,  T. Stein,  D. Stuck,  K. S. Thanthiriwatte,  
 V. Vanovschi,  L. Vogt,  Tao Wang,  A. Warshel,  M. A. Watson,  
 C. F. Williams,  Q. Wu,  X. Xu,  Jun Yang,  W. Zhang,  Yan Zhao

   Please cite Q-Chem as follows:
  "Software for the frontiers of quantum chemistry:
   An overview of developments in the Q-Chem 5 package"
   J. Chem. Phys. 155, 084801 (2021)
   https://doi.org/10.1063/5.0055522 (open access)

 Q-Chem 6.0.1 for Intel X86 EM64T Linux

 Parts of Q-Chem use Armadillo 9.900.5 (Nocturnal Misbehaviour).
 http://arma.sourceforge.net/

 Q-Chem begins on Thu Dec 22 13:04:03 2022  

 Host: atlas-163
0

     Scratch files written to ./qchem76322//
 Processing $rem in /scratch/abel/SOFTWARE/qchem/config/preferences:
 Processing $rem in /dipc/acebg/.qchemrc:

 Checking the input file for inconsistencies... 	...done.

--------------------------------------------------------------
User input:
--------------------------------------------------------------
$comment
 SCF CALCULATION
$end

$molecule
 READ no2.molecule
$end

$rem
!**CALCULATION TYPE***
METHOD             HF
BASIS              def2-TZVP

!***SCF REFERENCE***
SKIP_SCFMAN        FALSE
UNRESTRICTED       FALSE
!SCF_GUESS          core
!SCF_GUESS_MIX      FALSE
MAX_SCF_CYCLES     999
SCF_CONVERGENCE    8
!SCF_ALGORITHM      DIIS !DIIS,DM,DIIS_DM,GDM,DIIS_GDM,GD

SYMMETRY           TRUE !use of symmetry for calculating integrals
SYM_IGNORE         FALSE !turn off using symmetry
SYM_TOL            5 !tolerance for determining point group

THRESH             14
!SCF_PRINT          0 !0,1,2,3

!****MEMORY****
MEM_TOTAL          60000 !Default 2000 MB
MEM_STATIC         2000  !Default 64 MB

!**Molecular Properties and Analysis **
POP_MULLIKEN       FALSE   !Run Mulliken population analysis
LOWDIN_POPULATION  FALSE  !Run Löwdin population analysis
GUI                2
!STATE_ANALYSIS     TRUE
MOLDEN_FORMAT      TRUE
PRINT_ORBITALS     10
$end

--------------------------------------------------------------
 ----------------------------------------------------------------
             Standard Nuclear Orientation (Angstroms)
    I     Atom           X                Y                Z
 ----------------------------------------------------------------
    1      N      -0.0000000000     0.0000000000     0.3240267236
    2      O      -1.1048267521    -0.0000000000    -0.1417616916
    3      O       1.1048267521     0.0000000000    -0.1417616916
 ----------------------------------------------------------------
 Molecular Point Group                 C2v   NOp =  4
 Largest Abelian Subgroup              C2v   NOp =  4
 Nuclear Repulsion Energy =          64.75805752 hartrees
 There are       12 alpha and       11 beta electrons
 Requested basis set is def2-TZVP
 There are 33 shells and 93 basis functions

 Total QAlloc Memory Limit  60000 MB
 Mega-Array Size      1956 MB
 MEM_STATIC part      2000 MB


                       Distance Matrix (Angstroms)
             N (  1)   O (  2)
   O (  2)  1.199000
   O (  3)  1.199000  2.209654
 
 A cutoff of  1.0D-14 yielded    553 shell pairs
 There are      4505 function pairs (      6120 Cartesian)
 Smallest overlap matrix eigenvalue = 1.09E-03

 Scale SEOQF with 1.000000e+00/1.000000e+00/1.000000e+00

 Standard Electronic Orientation quadrupole field applied
 Nucleus-field energy     =     0.0000000058 hartrees
 Guess from superposition of atomic densities
 Warning:  Energy on first SCF cycle will be non-variational
 SAD guess density has 23.000000 electrons

 -----------------------------------------------------------------------
  General SCF calculation program by
  Eric Jon Sundstrom, Paul Horn, Yuezhi Mao, Dmitri Zuev, Alec White,
  David Stuck, Shaama M.S., Shane Yost, Joonho Lee, David Small,
  Daniel Levine, Susi Lehtola, Hugh Burton, Evgeny Epifanovsky,
  Bang C. Huynh
 -----------------------------------------------------------------------
 Hartree-Fock
 Orthonormalizing orbitals
 A restricted open-shell SCF calculation will be
 performed using GDM
 SCF converges when RMS gradient is below 1.0e-08
 ---------------------------------------
  Cycle       Energy        RMS Gradient
 ---------------------------------------
    1    -203.2618078657      6.60e-01   Descent step
    2    -203.7097044339      3.26e-01   Descent step
    3    -203.9667979098      1.50e-01   Descent step
    4    -204.0833740979      5.56e-02   Normal BFGS step
    5    -204.1083550893      1.37e-02   Normal BFGS step
    6    -204.1091153301      8.62e-03   Normal BFGS step
    7    -204.1092320431      3.75e-03   Normal BFGS step
    8    -204.1092534141      1.22e-03   Normal BFGS step
    9    -204.1092579209      7.04e-04   Normal BFGS step
   10    -204.1092586475      2.86e-04   Normal BFGS step
   11    -204.1092588000      4.65e-05   Normal BFGS step
   12    -204.1092588165      1.51e-05   Normal BFGS step
   13    -204.1092588175      2.89e-06   Normal BFGS step
   14    -204.1092588176      4.96e-07   Normal BFGS step
   15    -204.1092588176      1.19e-07   Normal BFGS step
   16    -204.1092588176      3.24e-08   Normal BFGS step
   17    -204.1092588176      5.35e-09  Convergence criterion met
The disked orbital energies are calculated using alpha and beta Focks
 ---------------------------------------
 SCF time:   CPU 7.61s  wall 10.00s 
<S^2> =          0.750000000
 SCF   energy in the final basis set =     -204.1092588176
 Total energy in the final basis set =     -204.1092588176
 
 --------------------------------------------------------------
             Orbital Energies (a.u.) and Symmetries
 --------------------------------------------------------------
 
 Alpha MOs, Restricted
 -- Doubly Occupied --           
-20.686 -20.686 -15.884  -1.672  -1.493  -0.949  -0.797  -0.830
  1 B1    1 A1    2 A1    3 A1    2 B1    4 A1    3 B1    5 A1                 
 -0.763  -0.593  -0.532
  1 B2    4 B1    1 A2                                                         
 -- Singly Occupied (Occupied) --
 -0.508
  6 A1                                                                         
 -- Virtual --                   
  0.071   0.282   0.355   0.385   0.431   0.477   0.540   0.589
  2 B2    7 A1    5 B1    8 A1    3 B2    9 A1    6 B1   10 A1                 
  0.613   0.633   0.664   0.666   0.752   0.872   0.985   1.116
  2 A2   11 A1    4 B2    7 B1    8 B1   12 A1    9 B1    5 B2                 
  1.200   1.292   1.522   1.634   1.704   1.784   1.816   1.870
 13 A1    3 A2   10 B1   14 A1    4 A2   11 B1    6 B2   15 A1                 
  2.063   2.125   2.194   2.248   2.363   2.387   2.404   2.495
 16 A1    7 B2   12 B1   17 A1   13 B1    8 B2    5 A2   18 A1                 
  2.563   2.863   3.021   3.062   3.086   3.189   3.250   3.435
 19 A1   14 B1   15 B1    9 B2    6 A2   20 A1   16 B1   21 A1                 
  4.025   4.045   4.053   4.168   4.203   4.472   4.593   4.672
 10 B2   22 A1   17 B1   23 A1    7 A2   11 B2   18 B1   24 A1                 
  4.781   4.827   4.911   4.960   5.306   5.408   5.489   5.501
 12 B2    8 A2   25 A1   19 B1   26 A1   20 B1    9 A2   21 B1                 
  5.511   5.521   5.790   5.885   5.941   5.959   6.469   6.657
 13 B2   27 A1   10 A2   14 B2   28 A1   22 B1   29 A1   11 A2                 
  6.703   6.720   6.744   6.748   6.923   6.998   7.315   7.333
 15 B2   23 B1   12 A2   30 A1   24 B1   16 B2   13 A2   17 B2                 
  7.333   7.419   7.445   7.628   7.831   7.893  33.171  45.221
 25 B1   31 A1   26 B1   32 A1   33 A1   27 B1   34 A1   35 A1                 
 45.276
 28 B1                                                                         
 
 Beta MOs, Restricted
 -- Doubly Occupied --           
-20.676 -20.676 -15.863  -1.634  -1.457  -0.888  -0.755  -0.721
  1 B1    1 A1    2 A1    3 A1    2 B1    4 A1    3 B1    5 A1                 
 -0.748  -0.509  -0.522
  1 B2    4 B1    1 A2                                                         
 -- Singly Occupied (Vacant) --  
  0.035
  6 A1                                                                         
 -- Virtual --                   
  0.098   0.295   0.368   0.405   0.436   0.497   0.546   0.605
  2 B2    7 A1    5 B1    8 A1    3 B2    9 A1    6 B1   10 A1                 
  0.616   0.649   0.669   0.673   0.816   0.879   0.998   1.141
  2 A2   11 A1    4 B2    7 B1    8 B1   12 A1    9 B1    5 B2                 
  1.228   1.301   1.540   1.667   1.714   1.795   1.844   1.891
 13 A1    3 A2   10 B1   14 A1    4 A2   11 B1    6 B2   15 A1                 
  2.123   2.134   2.222   2.274   2.377   2.394   2.416   2.518
 16 A1    7 B2   12 B1   17 A1   13 B1    8 B2    5 A2   18 A1                 
  2.592   2.873   3.051   3.067   3.093   3.200   3.259   3.459
 19 A1   14 B1   15 B1    9 B2    6 A2   20 A1   16 B1   21 A1                 
  4.049   4.068   4.072   4.184   4.209   4.499   4.608   4.723
 10 B2   22 A1   17 B1   23 A1    7 A2   11 B2   18 B1   24 A1                 
  4.810   4.843   4.924   4.999   5.319   5.419   5.498   5.509
 12 B2    8 A2   25 A1   19 B1   26 A1   20 B1    9 A2   21 B1                 
  5.524   5.535   5.807   5.892   5.950   5.974   6.497   6.668
 13 B2   27 A1   10 A2   14 B2   28 A1   22 B1   29 A1   11 A2                 
  6.726   6.741   6.759   6.768   6.941   7.006   7.322   7.341
 15 B2   23 B1   12 A2   30 A1   24 B1   16 B2   13 A2   17 B2                 
  7.346   7.434   7.462   7.642   7.843   7.907  33.187  45.226
 25 B1   31 A1   26 B1   32 A1   33 A1   27 B1   34 A1   35 A1                 
 45.281
 28 B1                                                                         
 --------------------------------------------------------------
 

                        RESTRICTED (RHF) MOLECULAR ORBITAL COEFFICIENTS
                         1         2         3         4         5         6
 eigenvalues:        -20.686   -20.686   -15.884    -1.672    -1.493    -0.949
   1  N     s        0.00000   0.00003   0.44916  -0.07253   0.00000  -0.06248
   2  N     s       -0.00000  -0.00005   0.63047  -0.16918   0.00000  -0.14855
   3  N     s       -0.00000  -0.00101   0.01838   0.27338  -0.00000   0.24189
   4  N     s        0.00000   0.00760  -0.00381   0.20968   0.00000   0.33199
   5  N     s       -0.00000  -0.00331   0.00176   0.01125   0.00000   0.05932
   6  N     px       0.00017  -0.00000   0.00000   0.00000   0.22051   0.00000
   7  N     py       0.00000   0.00000   0.00000   0.00000  -0.00000  -0.00000
   8  N     pz      -0.00000  -0.00013  -0.00148  -0.07272   0.00000   0.00092
   9  N     px       0.00723  -0.00000   0.00000  -0.00000   0.10741  -0.00000
  10  N     py      -0.00000  -0.00000  -0.00000  -0.00000  -0.00000  -0.00000
  11  N     pz      -0.00000  -0.00224  -0.00019  -0.03348  -0.00000   0.00114
  12  N     px      -0.00198   0.00000   0.00000  -0.00000  -0.00017  -0.00000
  13  N     py       0.00000  -0.00000   0.00000  -0.00000   0.00000  -0.00000
  14  N     pz       0.00000   0.00087  -0.00032   0.00290  -0.00000   0.00585
  15  N     d 1     -0.00000   0.00000   0.00000   0.00000  -0.00000  -0.00000
  16  N     d 2      0.00000  -0.00000  -0.00000  -0.00000   0.00000   0.00000
  17  N     d 3     -0.00000  -0.00006  -0.00009  -0.00461   0.00000  -0.00189
  18  N     d 4     -0.00015   0.00000   0.00000  -0.00000  -0.01594   0.00000
  19  N     d 5      0.00000   0.00018   0.00056   0.01511  -0.00000   0.00484
  20  N     d 1      0.00000  -0.00000  -0.00000  -0.00000   0.00000   0.00000
  21  N     d 2     -0.00000   0.00000   0.00000   0.00000  -0.00000  -0.00000
  22  N     d 3     -0.00000  -0.00082  -0.00028  -0.00191  -0.00000  -0.00084
  23  N     d 4     -0.00248   0.00000  -0.00000   0.00000  -0.00794   0.00000
  24  N     d 5      0.00000   0.00191   0.00078   0.00361   0.00000   0.00049
  25  N     f 1      0.00000  -0.00000  -0.00000  -0.00000   0.00000   0.00000
  26  N     f 2     -0.00000   0.00000   0.00000   0.00000  -0.00000   0.00000
  27  N     f 3      0.00000  -0.00000   0.00000   0.00000   0.00000   0.00000
  28  N     f 4      0.00000   0.00003   0.00030   0.00445   0.00000   0.00230
  29  N     f 5      0.00005  -0.00000   0.00000   0.00000  -0.00243  -0.00000
  30  N     f 6     -0.00000  -0.00006  -0.00040  -0.00576   0.00000  -0.00306
  31  N     f 7      0.00020  -0.00000   0.00000   0.00000   0.00427  -0.00000
  32  O 1   s       -0.30810   0.30810  -0.00011  -0.05273   0.06596   0.05072
  33  O 1   s       -0.45423   0.45424  -0.00020  -0.12705   0.15973   0.12440
  34  O 1   s       -0.01634   0.01610   0.00049   0.17405  -0.22460  -0.19027
  35  O 1   s        0.01044  -0.00904  -0.00095   0.25566  -0.32546  -0.27953
  36  O 1   s       -0.00350   0.00293  -0.00035   0.06346  -0.10515  -0.17774
  37  O 1   px      -0.00163   0.00161   0.00026   0.07861  -0.06256   0.17082
  38  O 1   py       0.00000  -0.00000  -0.00000  -0.00000  -0.00000  -0.00000
  39  O 1   pz      -0.00067   0.00067   0.00016   0.02356  -0.03205   0.07938
  40  O 1   px       0.00405  -0.00321  -0.00081   0.07917  -0.06844   0.13538
  41  O 1   py       0.00000   0.00000   0.00000   0.00000   0.00000  -0.00000
  42  O 1   pz       0.00152  -0.00148  -0.00040   0.02532  -0.03206   0.06466
  43  O 1   px      -0.00075   0.00070   0.00010   0.00760  -0.00928   0.04448
  44  O 1   py      -0.00000  -0.00000   0.00000   0.00000  -0.00000   0.00000
  45  O 1   pz      -0.00050   0.00011   0.00013   0.00145  -0.00473   0.02290
  46  O 1   d 1     -0.00000  -0.00000  -0.00000  -0.00000  -0.00000   0.00000
  47  O 1   d 2     -0.00000  -0.00000   0.00000   0.00000   0.00000   0.00000
  48  O 1   d 3      0.00005  -0.00000   0.00000  -0.00243   0.00138  -0.00211
  49  O 1   d 4     -0.00008   0.00007  -0.00001   0.00382  -0.00445   0.00499
  50  O 1   d 5     -0.00012   0.00017  -0.00001   0.00548  -0.00466   0.00536
  51  O 1   d 1     -0.00000   0.00000   0.00000   0.00000  -0.00000  -0.00000
  52  O 1   d 2      0.00000   0.00000  -0.00000  -0.00000  -0.00000  -0.00000
  53  O 1   d 3     -0.00058   0.00020   0.00011  -0.00758   0.00631  -0.00454
  54  O 1   d 4      0.00084  -0.00076  -0.00036   0.01270  -0.01405   0.01096
  55  O 1   d 5      0.00097  -0.00087  -0.00039   0.01711  -0.01549   0.01132
  56  O 1   f 1     -0.00000   0.00000   0.00000   0.00000   0.00000  -0.00000
  57  O 1   f 2     -0.00000   0.00000   0.00000   0.00000   0.00000  -0.00000
  58  O 1   f 3     -0.00000  -0.00000  -0.00000  -0.00000  -0.00000   0.00000
  59  O 1   f 4     -0.00009   0.00002   0.00007  -0.00217   0.00275  -0.00159
  60  O 1   f 5     -0.00005  -0.00001   0.00005  -0.00106   0.00097  -0.00005
  61  O 1   f 6      0.00010  -0.00008  -0.00008   0.00311  -0.00351   0.00231
  62  O 1   f 7      0.00008  -0.00010  -0.00010   0.00324  -0.00297   0.00174
  63  O 2   s        0.30810   0.30810  -0.00011  -0.05273  -0.06596   0.05072
  64  O 2   s        0.45423   0.45424  -0.00020  -0.12705  -0.15973   0.12440
  65  O 2   s        0.01634   0.01610   0.00049   0.17405   0.22460  -0.19027
  66  O 2   s       -0.01044  -0.00904  -0.00095   0.25566   0.32546  -0.27953
  67  O 2   s        0.00350   0.00293  -0.00035   0.06346   0.10515  -0.17774
  68  O 2   px      -0.00163  -0.00161  -0.00026  -0.07861  -0.06256  -0.17082
  69  O 2   py       0.00000  -0.00000   0.00000  -0.00000   0.00000   0.00000
  70  O 2   pz       0.00067   0.00067   0.00016   0.02356   0.03205   0.07938
  71  O 2   px       0.00405   0.00321   0.00081  -0.07917  -0.06844  -0.13538
  72  O 2   py      -0.00000   0.00000   0.00000   0.00000  -0.00000   0.00000
  73  O 2   pz      -0.00152  -0.00148  -0.00040   0.02532   0.03206   0.06466
  74  O 2   px      -0.00075  -0.00070  -0.00010  -0.00760  -0.00928  -0.04448
  75  O 2   py      -0.00000   0.00000  -0.00000   0.00000  -0.00000   0.00000
  76  O 2   pz       0.00050   0.00011   0.00013   0.00145   0.00473   0.02290
  77  O 2   d 1     -0.00000   0.00000   0.00000   0.00000  -0.00000  -0.00000
  78  O 2   d 2      0.00000   0.00000  -0.00000  -0.00000   0.00000  -0.00000
  79  O 2   d 3     -0.00005  -0.00000   0.00000  -0.00243  -0.00138  -0.00211
  80  O 2   d 4     -0.00008  -0.00007   0.00001  -0.00382  -0.00445  -0.00499
  81  O 2   d 5      0.00012   0.00017  -0.00001   0.00548   0.00466   0.00536
  82  O 2   d 1      0.00000  -0.00000  -0.00000  -0.00000   0.00000   0.00000
  83  O 2   d 2     -0.00000   0.00000   0.00000   0.00000  -0.00000  -0.00000
  84  O 2   d 3      0.00058   0.00020   0.00011  -0.00758  -0.00631  -0.00454
  85  O 2   d 4      0.00084   0.00076   0.00036  -0.01270  -0.01405  -0.01096
  86  O 2   d 5     -0.00097  -0.00087  -0.00039   0.01711   0.01549   0.01132
  87  O 2   f 1     -0.00000   0.00000  -0.00000  -0.00000  -0.00000  -0.00000
  88  O 2   f 2      0.00000  -0.00000  -0.00000   0.00000   0.00000   0.00000
  89  O 2   f 3      0.00000  -0.00000   0.00000  -0.00000   0.00000   0.00000
  90  O 2   f 4      0.00009   0.00002   0.00007  -0.00217  -0.00275  -0.00159
  91  O 2   f 5     -0.00005   0.00001  -0.00005   0.00106   0.00097   0.00005
  92  O 2   f 6     -0.00010  -0.00008  -0.00008   0.00311   0.00351   0.00231
  93  O 2   f 7      0.00008   0.00010   0.00010  -0.00324  -0.00297  -0.00174
                         7         8         9        10        11        12
 eigenvalues:         -0.797    -0.830    -0.763    -0.593    -0.532    -0.508
   1  N     s       -0.00000  -0.01608  -0.00000  -0.00000   0.00000  -0.03312
   2  N     s       -0.00000  -0.03799  -0.00000  -0.00000   0.00000  -0.07987
   3  N     s        0.00000   0.06556   0.00000  -0.00000  -0.00000   0.14086
   4  N     s        0.00000   0.07524  -0.00000   0.00000   0.00000   0.21957
   5  N     s       -0.00000   0.03653  -0.00000  -0.00000   0.00000   0.34899
   6  N     px       0.27245  -0.00000  -0.00000  -0.00861  -0.00000   0.00000
   7  N     py       0.00000  -0.00000   0.28629   0.00000   0.00000  -0.00000
   8  N     pz       0.00000   0.26945   0.00000   0.00000   0.00000   0.35910
   9  N     px       0.20011  -0.00000   0.00000   0.01734  -0.00000  -0.00000
  10  N     py       0.00000  -0.00000   0.26809   0.00000   0.00000  -0.00000
  11  N     pz       0.00000   0.23932   0.00000  -0.00000  -0.00000   0.32440
  12  N     px       0.02063  -0.00000   0.00000   0.06073  -0.00000  -0.00000
  13  N     py       0.00000  -0.00000   0.08988  -0.00000   0.00000  -0.00000
  14  N     pz       0.00000   0.06437   0.00000   0.00000  -0.00000   0.13689
  15  N     d 1     -0.00000  -0.00000  -0.00000  -0.00000   0.02217  -0.00000
  16  N     d 2      0.00000   0.00000  -0.00932  -0.00000   0.00000  -0.00000
  17  N     d 3     -0.00000  -0.01141  -0.00000   0.00000  -0.00000   0.01563
  18  N     d 4     -0.01182   0.00000  -0.00000   0.02045   0.00000  -0.00000
  19  N     d 5      0.00000   0.00284   0.00000   0.00000   0.00000  -0.01866
  20  N     d 1      0.00000  -0.00000   0.00000  -0.00000   0.06217   0.00000
  21  N     d 2     -0.00000   0.00000  -0.02101  -0.00000  -0.00000  -0.00000
  22  N     d 3     -0.00000  -0.02282   0.00000  -0.00000  -0.00000   0.04158
  23  N     d 4     -0.00188   0.00000  -0.00000   0.03802   0.00000   0.00000
  24  N     d 5      0.00000   0.00574  -0.00000   0.00000   0.00000  -0.03519
  25  N     f 1     -0.00000  -0.00000   0.01009   0.00000   0.00000   0.00000
  26  N     f 2     -0.00000  -0.00000  -0.00000   0.00000  -0.00775  -0.00000
  27  N     f 3     -0.00000   0.00000  -0.00157  -0.00000   0.00000   0.00000
  28  N     f 4      0.00000  -0.00351  -0.00000   0.00000   0.00000  -0.00188
  29  N     f 5     -0.00417   0.00000  -0.00000  -0.01044  -0.00000   0.00000
  30  N     f 6     -0.00000   0.00606   0.00000  -0.00000  -0.00000   0.00280
  31  N     f 7      0.00563  -0.00000   0.00000   0.00330  -0.00000  -0.00000
  32  O 1   s       -0.03250  -0.00468  -0.00000  -0.00171  -0.00000   0.00844
  33  O 1   s       -0.07993  -0.01154  -0.00000  -0.00429  -0.00000   0.02104
  34  O 1   s        0.12677   0.01709  -0.00000   0.00396   0.00000  -0.03254
  35  O 1   s        0.18383   0.02990   0.00000   0.01056  -0.00000  -0.03641
  36  O 1   s        0.14956   0.03927   0.00000   0.05456  -0.00000  -0.06789
  37  O 1   px      -0.22733  -0.14201  -0.00000   0.18639   0.00000  -0.03530
  38  O 1   py       0.00000  -0.00000   0.23663   0.00000  -0.33270   0.00000
  39  O 1   pz      -0.13086   0.21065   0.00000  -0.29254  -0.00000  -0.26189
  40  O 1   px      -0.19028  -0.11837   0.00000   0.17536  -0.00000  -0.02655
  41  O 1   py       0.00000  -0.00000   0.21461   0.00000  -0.30314   0.00000
  42  O 1   pz      -0.11028   0.19038   0.00000  -0.26490  -0.00000  -0.23473
  43  O 1   px      -0.07254  -0.04717   0.00000   0.11203  -0.00000  -0.01892
  44  O 1   py      -0.00000  -0.00000   0.08992   0.00000  -0.20098   0.00000
  45  O 1   pz      -0.04311   0.08878   0.00000  -0.15361  -0.00000  -0.19295
  46  O 1   d 1      0.00000  -0.00000   0.00830   0.00000  -0.00529  -0.00000
  47  O 1   d 2     -0.00000  -0.00000   0.00330   0.00000  -0.00248  -0.00000
  48  O 1   d 3      0.00198   0.00533   0.00000  -0.00385  -0.00000   0.00211
  49  O 1   d 4     -0.00784   0.00444   0.00000  -0.00221   0.00000  -0.00146
  50  O 1   d 5     -0.00728  -0.00430  -0.00000   0.00318   0.00000  -0.00363
  51  O 1   d 1      0.00000  -0.00000   0.02357   0.00000  -0.01987  -0.00000
  52  O 1   d 2      0.00000  -0.00000   0.01024   0.00000  -0.00780  -0.00000
  53  O 1   d 3      0.00583   0.01399  -0.00000  -0.01321   0.00000   0.00322
  54  O 1   d 4     -0.01814   0.01404   0.00000  -0.00782  -0.00000  -0.00495
  55  O 1   d 5     -0.01693  -0.00986   0.00000   0.01155  -0.00000  -0.00741
  56  O 1   f 1      0.00000  -0.00000   0.00477   0.00000  -0.00330  -0.00000
  57  O 1   f 2      0.00000  -0.00000   0.00352   0.00000  -0.00300  -0.00000
  58  O 1   f 3      0.00000   0.00000  -0.00081  -0.00000   0.00064  -0.00000
  59  O 1   f 4      0.00306  -0.00087  -0.00000  -0.00016   0.00000   0.00073
  60  O 1   f 5      0.00049   0.00554   0.00000  -0.00387   0.00000   0.00037
  61  O 1   f 6     -0.00392   0.00175   0.00000   0.00013  -0.00000  -0.00140
  62  O 1   f 7     -0.00291  -0.00234   0.00000   0.00184  -0.00000  -0.00188
  63  O 2   s        0.03250  -0.00468  -0.00000   0.00171   0.00000   0.00844
  64  O 2   s        0.07993  -0.01154  -0.00000   0.00429   0.00000   0.02104
  65  O 2   s       -0.12677   0.01709   0.00000  -0.00396   0.00000  -0.03254
  66  O 2   s       -0.18383   0.02990  -0.00000  -0.01056  -0.00000  -0.03641
  67  O 2   s       -0.14956   0.03927  -0.00000  -0.05456  -0.00000  -0.06789
  68  O 2   px      -0.22733   0.14201   0.00000   0.18639   0.00000   0.03530
  69  O 2   py       0.00000  -0.00000   0.23663  -0.00000   0.33270   0.00000
  70  O 2   pz       0.13086   0.21065   0.00000   0.29254   0.00000  -0.26189
  71  O 2   px      -0.19028   0.11837   0.00000   0.17536   0.00000   0.02655
  72  O 2   py       0.00000  -0.00000   0.21461  -0.00000   0.30314   0.00000
  73  O 2   pz       0.11028   0.19038   0.00000   0.26490   0.00000  -0.23473
  74  O 2   px      -0.07254   0.04717   0.00000   0.11203   0.00000   0.01892
  75  O 2   py      -0.00000  -0.00000   0.08992  -0.00000   0.20098   0.00000
  76  O 2   pz       0.04311   0.08878   0.00000   0.15361   0.00000  -0.19295
  77  O 2   d 1     -0.00000   0.00000  -0.00830   0.00000  -0.00529   0.00000
  78  O 2   d 2      0.00000  -0.00000   0.00330  -0.00000   0.00248  -0.00000
  79  O 2   d 3     -0.00198   0.00533   0.00000   0.00385   0.00000   0.00211
  80  O 2   d 4     -0.00784  -0.00444  -0.00000  -0.00221  -0.00000   0.00146
  81  O 2   d 5      0.00728  -0.00430  -0.00000  -0.00318  -0.00000  -0.00363
  82  O 2   d 1      0.00000   0.00000  -0.02357   0.00000  -0.01987   0.00000
  83  O 2   d 2     -0.00000  -0.00000   0.01024  -0.00000   0.00780  -0.00000
  84  O 2   d 3     -0.00583   0.01399   0.00000   0.01321  -0.00000   0.00322
  85  O 2   d 4     -0.01814  -0.01404  -0.00000  -0.00782   0.00000   0.00495
  86  O 2   d 5      0.01693  -0.00986  -0.00000  -0.01155  -0.00000  -0.00741
  87  O 2   f 1     -0.00000  -0.00000   0.00477  -0.00000   0.00330  -0.00000
  88  O 2   f 2     -0.00000   0.00000  -0.00352   0.00000  -0.00300   0.00000
  89  O 2   f 3     -0.00000   0.00000  -0.00081   0.00000  -0.00064  -0.00000
  90  O 2   f 4     -0.00306  -0.00087   0.00000   0.00016   0.00000   0.00073
  91  O 2   f 5      0.00049  -0.00554  -0.00000  -0.00387  -0.00000  -0.00037
  92  O 2   f 6      0.00392   0.00175  -0.00000  -0.00013  -0.00000  -0.00140
  93  O 2   f 7     -0.00291   0.00234   0.00000   0.00184   0.00000   0.00188
                        13        14        15        16        17        18
 eigenvalues:          0.071     0.282     0.355     0.385     0.431     0.477
   1  N     s       -0.00000   0.00468   0.00000   0.04826   0.00000  -0.04306
   2  N     s       -0.00000   0.00270   0.00000   0.10597   0.00000  -0.09892
   3  N     s        0.00000   0.06099  -0.00000   0.04662  -0.00000  -0.01234
   4  N     s        0.00000  -0.45823   0.00000  -1.66292  -0.00000   1.57551
   5  N     s        0.00000   5.56391   0.00000  -0.83771   0.00000  -0.73531
   6  N     px       0.00000  -0.00000   0.07254  -0.00000   0.00000  -0.00000
   7  N     py       0.37718   0.00000   0.00000   0.00000  -0.19163  -0.00000
   8  N     pz       0.00000  -0.14639  -0.00000  -0.04352   0.00000  -0.20382
   9  N     px       0.00000  -0.00000   0.41985  -0.00000  -0.00000  -0.00000
  10  N     py       0.38998   0.00000   0.00000   0.00000  -0.67321  -0.00000
  11  N     pz       0.00000  -0.32390  -0.00000  -0.22966   0.00000  -0.64959
  12  N     px       0.00000  -0.00000   4.15810  -0.00000   0.00000   0.00000
  13  N     py       0.56226   0.00000  -0.00000  -0.00000   1.33235   0.00000
  14  N     pz       0.00000  -1.43703  -0.00000   1.67303  -0.00000   0.77129
  15  N     d 1      0.00000   0.00000   0.00000  -0.00000   0.00000   0.00000
  16  N     d 2      0.00500   0.00000  -0.00000   0.00000   0.00681   0.00000
  17  N     d 3      0.00000   0.00564   0.00000   0.00633   0.00000   0.00256
  18  N     d 4     -0.00000  -0.00000   0.02010  -0.00000   0.00000   0.00000
  19  N     d 5     -0.00000  -0.02751  -0.00000   0.00493  -0.00000   0.00554
  20  N     d 1     -0.00000  -0.00000   0.00000   0.00000  -0.00000   0.00000
  21  N     d 2      0.01481  -0.00000  -0.00000  -0.00000   0.03946   0.00000
  22  N     d 3      0.00000  -0.04583  -0.00000   0.03125  -0.00000   0.05944
  23  N     d 4     -0.00000   0.00000  -0.18180  -0.00000   0.00000   0.00000
  24  N     d 5     -0.00000   0.11007   0.00000  -0.04880   0.00000  -0.02335
  25  N     f 1     -0.00298  -0.00000   0.00000   0.00000  -0.00548   0.00000
  26  N     f 2      0.00000   0.00000  -0.00000  -0.00000  -0.00000  -0.00000
  27  N     f 3     -0.00068   0.00000   0.00000  -0.00000   0.00024  -0.00000
  28  N     f 4     -0.00000   0.00353   0.00000  -0.00603   0.00000   0.00883
  29  N     f 5     -0.00000  -0.00000   0.00362   0.00000   0.00000   0.00000
  30  N     f 6      0.00000  -0.00386  -0.00000   0.00816  -0.00000  -0.01457
  31  N     f 7      0.00000  -0.00000   0.01029   0.00000  -0.00000  -0.00000
  32  O 1   s        0.00000   0.02675  -0.02560  -0.01431  -0.00000   0.01129
  33  O 1   s        0.00000   0.06755  -0.06454  -0.03556  -0.00000   0.02672
  34  O 1   s       -0.00000  -0.11500   0.10350   0.04334   0.00000  -0.00700
  35  O 1   s       -0.00000  -0.07438   0.06844   0.10550  -0.00000  -0.18357
  36  O 1   s        0.00000  -2.47795   3.48044   1.06997  -0.00000   0.09757
  37  O 1   px      -0.00000  -0.05818  -0.03687   0.09560   0.00000  -0.07923
  38  O 1   py      -0.24768  -0.00000  -0.00000  -0.00000  -0.07951  -0.00000
  39  O 1   pz      -0.00000   0.03983   0.06380  -0.03178   0.00000  -0.10165
  40  O 1   px      -0.00000  -0.07823   0.03336   0.15096  -0.00000  -0.09231
  41  O 1   py      -0.21831  -0.00000  -0.00000  -0.00000  -0.17720  -0.00000
  42  O 1   pz      -0.00000  -0.00031   0.07212  -0.02592   0.00000  -0.21738
  43  O 1   px       0.00000  -1.27927   1.30237   0.79570   0.00000  -0.53789
  44  O 1   py      -0.39390  -0.00000   0.00000   0.00000   0.02238  -0.00000
  45  O 1   pz      -0.00000  -0.12847   0.94109   0.01523  -0.00000   0.01013
  46  O 1   d 1      0.00617   0.00000  -0.00000   0.00000  -0.00423  -0.00000
  47  O 1   d 2      0.00277   0.00000  -0.00000   0.00000  -0.00168  -0.00000
  48  O 1   d 3      0.00000  -0.00523   0.00062   0.00410   0.00000  -0.00847
  49  O 1   d 4     -0.00000  -0.00147  -0.00776  -0.00419  -0.00000   0.00447
  50  O 1   d 5     -0.00000   0.00487  -0.00603  -0.00730  -0.00000   0.01288
  51  O 1   d 1      0.01026   0.00000   0.00000  -0.00000  -0.01562   0.00000
  52  O 1   d 2      0.00698   0.00000  -0.00000  -0.00000  -0.00365  -0.00000
  53  O 1   d 3      0.00000   0.00664  -0.03688  -0.01197   0.00000   0.00348
  54  O 1   d 4     -0.00000  -0.04142   0.05189   0.01237  -0.00000  -0.02325
  55  O 1   d 5     -0.00000  -0.05182   0.07009   0.03774  -0.00000  -0.01773
  56  O 1   f 1      0.00194  -0.00000   0.00000  -0.00000   0.00104   0.00000
  57  O 1   f 2      0.00126   0.00000  -0.00000  -0.00000   0.00078   0.00000
  58  O 1   f 3      0.00005  -0.00000  -0.00000  -0.00000  -0.00003   0.00000
  59  O 1   f 4     -0.00000   0.00136  -0.00303  -0.00139   0.00000   0.00291
  60  O 1   f 5      0.00000  -0.00244  -0.00510   0.00043  -0.00000   0.00287
  61  O 1   f 6     -0.00000  -0.00379   0.00246   0.00275  -0.00000  -0.00352
  62  O 1   f 7     -0.00000  -0.00265   0.00476   0.00270  -0.00000  -0.00475
  63  O 2   s        0.00000   0.02675   0.02560  -0.01431  -0.00000   0.01129
  64  O 2   s        0.00000   0.06755   0.06454  -0.03556  -0.00000   0.02672
  65  O 2   s       -0.00000  -0.11500  -0.10350   0.04334  -0.00000  -0.00700
  66  O 2   s       -0.00000  -0.07438  -0.06844   0.10550   0.00000  -0.18357
  67  O 2   s       -0.00000  -2.47795  -3.48044   1.06997  -0.00000   0.09757
  68  O 2   px       0.00000   0.05818  -0.03687  -0.09560  -0.00000   0.07923
  69  O 2   py      -0.24768  -0.00000   0.00000  -0.00000  -0.07951  -0.00000
  70  O 2   pz      -0.00000   0.03983  -0.06380  -0.03178  -0.00000  -0.10165
  71  O 2   px       0.00000   0.07823   0.03336  -0.15096  -0.00000   0.09231
  72  O 2   py      -0.21831  -0.00000   0.00000  -0.00000  -0.17720  -0.00000
  73  O 2   pz      -0.00000  -0.00031  -0.07212  -0.02592   0.00000  -0.21738
  74  O 2   px      -0.00000   1.27927   1.30237  -0.79570  -0.00000   0.53789
  75  O 2   py      -0.39390  -0.00000   0.00000   0.00000   0.02238   0.00000
  76  O 2   pz      -0.00000  -0.12847  -0.94109   0.01523  -0.00000   0.01013
  77  O 2   d 1     -0.00617   0.00000  -0.00000  -0.00000   0.00423   0.00000
  78  O 2   d 2      0.00277   0.00000   0.00000  -0.00000  -0.00168   0.00000
  79  O 2   d 3      0.00000  -0.00523  -0.00062   0.00410   0.00000  -0.00847
  80  O 2   d 4      0.00000   0.00147  -0.00776   0.00419   0.00000  -0.00447
  81  O 2   d 5     -0.00000   0.00487   0.00603  -0.00730  -0.00000   0.01288
  82  O 2   d 1     -0.01026  -0.00000  -0.00000   0.00000   0.01562   0.00000
  83  O 2   d 2      0.00698   0.00000  -0.00000  -0.00000  -0.00365  -0.00000
  84  O 2   d 3      0.00000   0.00664   0.03688  -0.01197  -0.00000   0.00348
  85  O 2   d 4      0.00000   0.04142   0.05189  -0.01237  -0.00000   0.02325
  86  O 2   d 5     -0.00000  -0.05182  -0.07009   0.03774   0.00000  -0.01773
  87  O 2   f 1      0.00194   0.00000  -0.00000  -0.00000   0.00104  -0.00000
  88  O 2   f 2     -0.00126   0.00000   0.00000   0.00000  -0.00078   0.00000
  89  O 2   f 3      0.00005   0.00000  -0.00000  -0.00000  -0.00003  -0.00000
  90  O 2   f 4     -0.00000   0.00136   0.00303  -0.00139  -0.00000   0.00291
  91  O 2   f 5     -0.00000   0.00244  -0.00510  -0.00043   0.00000  -0.00287
  92  O 2   f 6     -0.00000  -0.00379  -0.00246   0.00275   0.00000  -0.00352
  93  O 2   f 7      0.00000   0.00265   0.00476  -0.00270  -0.00000   0.00475
                        19        20        21        22
 eigenvalues:          0.540     0.589     0.613     0.633
   1  N     s        0.00000   0.01986   0.00000   0.02907
   2  N     s        0.00000   0.05334   0.00000   0.07072
   3  N     s       -0.00000  -0.34350  -0.00000  -0.10799
   4  N     s        0.00000   1.25535   0.00000  -0.33989
   5  N     s        0.00000   0.77775   0.00000   2.31571
   6  N     px      -0.17768   0.00000  -0.00000   0.00000
   7  N     py       0.00000   0.00000   0.00000  -0.00000
   8  N     pz       0.00000   0.08252   0.00000   0.22049
   9  N     px      -0.81218   0.00000  -0.00000  -0.00000
  10  N     py       0.00000   0.00000   0.00000  -0.00000
  11  N     pz      -0.00000  -0.25343  -0.00000   0.30200
  12  N     px       1.13543   0.00000  -0.00000  -0.00000
  13  N     py      -0.00000  -0.00000  -0.00000   0.00000
  14  N     pz       0.00000   0.76570  -0.00000  -1.81768
  15  N     d 1      0.00000  -0.00000  -0.00525   0.00000
  16  N     d 2     -0.00000  -0.00000  -0.00000   0.00000
  17  N     d 3     -0.00000  -0.00937  -0.00000  -0.01769
  18  N     d 4      0.02370  -0.00000   0.00000   0.00000
  19  N     d 5      0.00000   0.03326   0.00000   0.01701
  20  N     d 1     -0.00000  -0.00000   0.16815  -0.00000
  21  N     d 2      0.00000   0.00000  -0.00000  -0.00000
  22  N     d 3     -0.00000  -0.13492  -0.00000   0.04453
  23  N     d 4     -0.02117   0.00000  -0.00000  -0.00000
  24  N     d 5      0.00000   0.41325   0.00000   0.04280
  25  N     f 1      0.00000   0.00000  -0.00000  -0.00000
  26  N     f 2     -0.00000   0.00000  -0.00927   0.00000
  27  N     f 3      0.00000  -0.00000   0.00000   0.00000
  28  N     f 4      0.00000   0.02594   0.00000   0.00064
  29  N     f 5      0.01223  -0.00000   0.00000   0.00000
  30  N     f 6     -0.00000  -0.03873  -0.00000  -0.00593
  31  N     f 7     -0.01536  -0.00000   0.00000   0.00000
  32  O 1   s        0.01094  -0.00418  -0.00000  -0.01006
  33  O 1   s        0.02362  -0.01607  -0.00000  -0.02499
  34  O 1   s        0.02309   0.12750   0.00000   0.02167
  35  O 1   s       -0.27274  -0.36131  -0.00000   0.26461
  36  O 1   s        0.31974  -0.34199  -0.00000  -1.35980
  37  O 1   px      -0.01972   0.20585   0.00000   0.23623
  38  O 1   py       0.00000   0.00000  -0.17069   0.00000
  39  O 1   pz       0.07972   0.10039  -0.00000  -0.09427
  40  O 1   px      -0.03525   0.08109   0.00000   0.40812
  41  O 1   py       0.00000   0.00000  -0.47660   0.00000
  42  O 1   pz       0.18667   0.16902  -0.00000  -0.29356
  43  O 1   px      -0.72780  -0.69264  -0.00000  -0.99565
  44  O 1   py      -0.00000  -0.00000   1.05309  -0.00000
  45  O 1   pz      -0.57688  -1.02160  -0.00000   0.84199
  46  O 1   d 1     -0.00000   0.00000  -0.00990  -0.00000
  47  O 1   d 2      0.00000   0.00000  -0.00486   0.00000
  48  O 1   d 3     -0.00299   0.00185  -0.00000  -0.00428
  49  O 1   d 4      0.01562   0.01576   0.00000  -0.00479
  50  O 1   d 5      0.01428   0.00772   0.00000   0.00289
  51  O 1   d 1      0.00000  -0.00000   0.00462   0.00000
  52  O 1   d 2     -0.00000  -0.00000   0.01662  -0.00000
  53  O 1   d 3      0.00808   0.05327   0.00000   0.03313
  54  O 1   d 4     -0.04216  -0.10208  -0.00000   0.02086
  55  O 1   d 5     -0.04601  -0.10218  -0.00000  -0.06010
  56  O 1   f 1     -0.00000   0.00000   0.00238  -0.00000
  57  O 1   f 2     -0.00000  -0.00000   0.00288   0.00000
  58  O 1   f 3     -0.00000  -0.00000   0.00060  -0.00000
  59  O 1   f 4      0.00363   0.00566   0.00000  -0.00179
  60  O 1   f 5     -0.00273   0.00326   0.00000   0.00252
  61  O 1   f 6     -0.00680  -0.00791  -0.00000   0.00221
  62  O 1   f 7     -0.00415  -0.00804  -0.00000  -0.00227
  63  O 2   s       -0.01094  -0.00418  -0.00000  -0.01006
  64  O 2   s       -0.02362  -0.01607  -0.00000  -0.02499
  65  O 2   s       -0.02309   0.12750   0.00000   0.02167
  66  O 2   s        0.27274  -0.36131  -0.00000   0.26461
  67  O 2   s       -0.31974  -0.34199  -0.00000  -1.35980
  68  O 2   px      -0.01972  -0.20585  -0.00000  -0.23623
  69  O 2   py      -0.00000  -0.00000   0.17069  -0.00000
  70  O 2   pz      -0.07972   0.10039   0.00000  -0.09427
  71  O 2   px      -0.03525  -0.08109  -0.00000  -0.40812
  72  O 2   py      -0.00000  -0.00000   0.47660  -0.00000
  73  O 2   pz      -0.18667   0.16902  -0.00000  -0.29356
  74  O 2   px      -0.72780   0.69264   0.00000   0.99565
  75  O 2   py       0.00000   0.00000  -1.05309   0.00000
  76  O 2   pz       0.57688  -1.02160   0.00000   0.84199
  77  O 2   d 1      0.00000   0.00000  -0.00990   0.00000
  78  O 2   d 2     -0.00000  -0.00000   0.00486  -0.00000
  79  O 2   d 3      0.00299   0.00185  -0.00000  -0.00428
  80  O 2   d 4      0.01562  -0.01576  -0.00000   0.00479
  81  O 2   d 5     -0.01428   0.00772   0.00000   0.00289
  82  O 2   d 1      0.00000  -0.00000   0.00462  -0.00000
  83  O 2   d 2      0.00000   0.00000  -0.01662   0.00000
  84  O 2   d 3     -0.00808   0.05327   0.00000   0.03313
  85  O 2   d 4     -0.04216   0.10208   0.00000  -0.02086
  86  O 2   d 5      0.04601  -0.10218  -0.00000  -0.06010
  87  O 2   f 1     -0.00000   0.00000  -0.00238   0.00000
  88  O 2   f 2      0.00000  -0.00000   0.00288  -0.00000
  89  O 2   f 3      0.00000  -0.00000  -0.00060   0.00000
  90  O 2   f 4     -0.00363   0.00566   0.00000  -0.00179
  91  O 2   f 5     -0.00273  -0.00326  -0.00000  -0.00252
  92  O 2   f 6      0.00680  -0.00791  -0.00000   0.00221
  93  O 2   f 7     -0.00415   0.00804   0.00000   0.00227
 

======= MOLECULAR ORBITALS IN MOLDEN FORMAT =======
[Molden Format]
[Atoms] (Angs)
  N      1    7     -0.00000000      0.00000000      0.32402672
  O      2    8     -1.10482675     -0.00000000     -0.14176169
  O      3    8      1.10482675      0.00000000     -0.14176169
[GTO]
1    0
S    6    1.000000
   1.97308006E+04    2.18879850E-04 
   2.95789587E+03    1.69607088E-03 
   6.73221336E+02    8.79546035E-03 
   1.90682495E+02    3.53593826E-02 
   6.22954419E+01    1.10957892E-01 
   2.26541612E+01    2.49829726E-01 
S    2    1.000000
   8.97914774E+00    4.06238961E-01 
   3.68630024E+00    2.43382172E-01 
S    1    1.000000
   8.46600768E-01    1.00000000E+00 
S    1    1.000000
   3.36471338E-01    1.00000000E+00 
S    1    1.000000
   1.36476537E-01    1.00000000E+00 
P    4    1.000000
   4.92003805E+01    5.55524168E-03 
   1.13467905E+01    3.80523797E-02 
   3.42739724E+00    1.49536710E-01 
   1.17855251E+00    3.49493052E-01 
P    1    1.000000
   4.16422050E-01    4.58431537E-01 
P    1    1.000000
   1.42608260E-01    2.44287717E-01 
D    1    1.000000
   1.65400000E+00    1.00000000E+00 
D    1    1.000000
   4.69000000E-01    1.00000000E+00 
F    1    1.000000
   1.09300000E+00    1.00000000E+00 

2    0
S    6    1.000000
   2.70323826E+04    2.17263025E-04 
   4.05238714E+03    1.68386622E-03 
   9.22327227E+02    8.73956163E-03 
   2.61240710E+02    3.52399688E-02 
   8.53546414E+01    1.11535191E-01 
   3.10350352E+01    2.55889540E-01 
S    2    1.000000
   1.22608607E+01    3.97687309E-01 
   4.99870760E+00    2.46278494E-01 
S    1    1.000000
   1.17031082E+00    1.00000000E+00 
S    1    1.000000
   4.64747410E-01    1.00000000E+00 
S    1    1.000000
   1.85045364E-01    1.00000000E+00 
P    4    1.000000
   6.32749548E+01    6.06851034E-03 
   1.46270494E+01    4.19125758E-02 
   4.45012235E+00    1.61538411E-01 
   1.52757996E+00    3.57069513E-01 
P    1    1.000000
   5.29351179E-01    4.47942075E-01 
P    1    1.000000
   1.74784213E-01    2.44460697E-01 
D    1    1.000000
   2.31400000E+00    1.00000000E+00 
D    1    1.000000
   6.45000000E-01    1.00000000E+00 
F    1    1.000000
   1.42800000E+00    1.00000000E+00 

3    0
S    6    1.000000
   2.70323826E+04    2.17263025E-04 
   4.05238714E+03    1.68386622E-03 
   9.22327227E+02    8.73956163E-03 
   2.61240710E+02    3.52399688E-02 
   8.53546414E+01    1.11535191E-01 
   3.10350352E+01    2.55889540E-01 
S    2    1.000000
   1.22608607E+01    3.97687309E-01 
   4.99870760E+00    2.46278494E-01 
S    1    1.000000
   1.17031082E+00    1.00000000E+00 
S    1    1.000000
   4.64747410E-01    1.00000000E+00 
S    1    1.000000
   1.85045364E-01    1.00000000E+00 
P    4    1.000000
   6.32749548E+01    6.06851034E-03 
   1.46270494E+01    4.19125758E-02 
   4.45012235E+00    1.61538411E-01 
   1.52757996E+00    3.57069513E-01 
P    1    1.000000
   5.29351179E-01    4.47942075E-01 
P    1    1.000000
   1.74784213E-01    2.44460697E-01 
D    1    1.000000
   2.31400000E+00    1.00000000E+00 
D    1    1.000000
   6.45000000E-01    1.00000000E+00 
F    1    1.000000
   1.42800000E+00    1.00000000E+00 

[MO]
Sym=X
Ene= -20.685943
Spin=Alpha
Occup=1
     1    3.665732350084e-15
     2   -7.793426645037e-15
     3   -1.467401242440e-13
     4    1.112356788190e-12
     5   -5.096110527792e-13
     6    1.679203591157e-04
     7    2.945652484365e-17
     8   -1.916911903296e-14
     9    7.234198264140e-03
    10   -7.830669869000e-17
    11   -3.263658194137e-13
    12   -1.977605496962e-03
    13    8.351147101798e-16
    14    1.322428318486e-13
    15   -8.041224160628e-15
    16   -1.462148840987e-04
    17    1.903705479415e-16
    18    2.565682835877e-14
    19   -1.230570613622e-16
    20   -1.188918845540e-13
    21   -2.478058830131e-03
    22   -2.750128410762e-16
    23    2.771658753498e-13
    24    2.704831668079e-16
    25    3.071231882153e-15
    26    4.554610279390e-05
    27    5.228412291424e-17
    28   -6.378039415911e-15
    29   -6.421528259601e-17
    30    1.968955174956e-04
    31    5.196535015329e-17
    32   -3.080956693821e-01
    33   -4.542287911793e-01
    34   -1.634106011691e-02
    35    1.044303005913e-02
    36   -3.503124969301e-03
    37   -1.626563732531e-03
    38    1.239831352596e-16
    39   -6.737445220241e-04
    40    4.052665812998e-03
    41    4.215376956022e-17
    42    1.515047765055e-03
    43   -7.538607142469e-04
    44   -4.566466041574e-16
    45   -4.954738853177e-04
    46    4.885461920321e-05
    47   -7.590096017963e-05
    48   -8.552568997451e-18
    49   -1.202157393289e-04
    50   -5.660130100440e-18
    51   -5.830503659355e-04
    52    8.414659534671e-04
    53    4.017869984163e-17
    54    9.743389188666e-04
    55   -1.198959469732e-16
    56   -9.440873150848e-05
    57   -5.266244643267e-05
    58   -2.692811129399e-17
    59    9.919670410517e-05
    60   -3.840024269762e-17
    61    7.743279434304e-05
    62   -1.472085728747e-17
    63    3.080956694753e-01
    64    4.542287913166e-01
    65    1.634106012176e-02
    66   -1.044303006183e-02
    67    3.503124970206e-03
    68   -1.626563733017e-03
    69    1.787708583733e-16
    70    6.737445222247e-04
    71    4.052665813944e-03
    72   -2.335997767074e-16
    73   -1.515047765491e-03
    74   -7.538607144662e-04
    75   -4.586574084487e-16
    76    4.954738853563e-04
    77   -4.885461920481e-05
    78   -7.590096019994e-05
    79    4.519779051667e-17
    80    1.202157393788e-04
    81   -6.752159836568e-17
    82    5.830503659951e-04
    83    8.414659536896e-04
    84   -1.018282010131e-16
    85   -9.743389191192e-04
    86    1.954766353272e-16
    87    9.440873151513e-05
    88   -5.266244642897e-05
    89    1.171492428242e-16
    90   -9.919670412789e-05
    91    8.568310721357e-17
    92    7.743279437281e-05
    93   -5.829642594633e-17
Sym=X
Ene= -20.685900
Spin=Alpha
Occup=1
     1    2.861628836820e-05
     2   -4.752762622848e-05
     3   -1.009461562645e-03
     4    7.604956618305e-03
     5   -3.306686547771e-03
     6   -2.461159829100e-14
     7    9.148555134722e-18
     8   -1.254244307793e-04
     9   -1.115779642001e-12
    10   -3.861045520272e-16
    11   -2.236943888125e-03
    12    2.958538537309e-13
    13   -1.968682967276e-16
    14    8.692370230110e-04
    15   -5.511360951014e-05
    16    2.151460780254e-14
    17   -2.471816435350e-17
    18    1.803661029056e-04
    19    1.815054970540e-16
    20   -8.217218216997e-04
    21    3.833598864864e-13
    22    2.929759395385e-16
    23    1.908597830059e-03
    24   -1.873319371014e-16
    25    3.108728934808e-05
    26   -6.321030649103e-15
    27   -6.090211848207e-17
    28   -5.728875583861e-05
    29    5.210952291977e-17
    30   -3.021049794183e-14
    31   -2.802043057051e-16
    32    3.080981493490e-01
    33    4.542400409813e-01
    34    1.609613752379e-02
    35   -9.040986306519e-03
    36    2.927609796618e-03
    37    1.612900101028e-03
    38   -3.209391405128e-16
    39    6.651424685965e-04
    40   -3.211556439613e-03
    41    5.504666976444e-16
    42   -1.479978946205e-03
    43    7.018392549951e-04
    44   -4.225965541282e-17
    45    1.127822085863e-04
    46   -4.332414887385e-06
    47    7.030270621404e-05
    48   -7.369796945108e-18
    49    1.667842253845e-04
    50   -1.244588047958e-16
    51    2.046489343079e-04
    52   -7.646668924750e-04
    53    4.074583620588e-17
    54   -8.659404407354e-04
    55    3.067299710620e-16
    56    2.476395764456e-05
    57   -1.194665902722e-05
    58   -2.830102554211e-17
    59   -8.053941990589e-05
    60    1.875481949845e-16
    61   -1.024262412108e-04
    62    1.700085499901e-16
    63    3.080981492559e-01
    64    4.542400408440e-01
    65    1.609613751883e-02
    66   -9.040986303322e-03
    67    2.927609795564e-03
    68   -1.612900100534e-03
    69   -9.676623327787e-17
    70    6.651424683932e-04
    71    3.211556438368e-03
    72    3.738046857682e-16
    73   -1.479978945741e-03
    74   -7.018392547704e-04
    75    1.154839467918e-16
    76    1.127822084388e-04
    77   -4.332414872900e-06
    78   -7.030270619067e-05
    79    2.858773731354e-17
    80    1.667842253485e-04
    81    1.776847586612e-16
    82    2.046489341286e-04
    83    7.646668922157e-04
    84    8.986482265746e-17
    85   -8.659404404356e-04
    86   -3.308233763392e-16
    87    2.476395761604e-05
    88    1.194665904343e-05
    89   -1.379426884206e-16
    90   -8.053941987566e-05
    91   -4.377772141482e-18
    92    1.024262411868e-04
    93    1.538827858216e-16
Sym=X
Ene= -15.884046
Spin=Alpha
Occup=1
     1    4.491612908618e-01
     2    6.304681699641e-01
     3    1.838352069143e-02
     4   -3.811429606864e-03
     5    1.756638520994e-03
     6    1.975950032449e-16
     7    2.220327117955e-16
     8   -1.483720596456e-03
     9    4.844760204762e-15
    10   -6.491747721901e-16
    11   -1.910436841354e-04
    12    4.451914135711e-15
    13    1.456975082292e-16
    14   -3.248481016918e-04
    15   -8.801163760605e-05
    16    1.392518973113e-16
    17   -6.343758349927e-18
    18    5.624531930337e-04
    19    4.712806138854e-18
    20   -2.836703053429e-04
    21   -2.546954095358e-15
    22    1.899995505593e-16
    23    7.822766251403e-04
    24   -1.876800142825e-16
    25    2.989987262090e-04
    26    9.199549270010e-17
    27    6.400411596259e-17
    28   -3.960842278692e-04
    29    3.875739815820e-17
    30    5.474707019014e-16
    31   -2.292323176128e-16
    32   -1.128297782932e-04
    33   -1.988089808213e-04
    34    4.927525429356e-04
    35   -9.522091935344e-04
    36   -3.518864183757e-04
    37    2.590530829209e-04
    38   -1.581922223404e-17
    39    1.553388172243e-04
    40   -8.118633356119e-04
    41    2.594689509543e-17
    42   -4.019502240576e-04
    43    9.644637692876e-05
    44    1.477997209778e-16
    45    1.333102254108e-04
    46    2.098301054572e-06
    47   -5.667127545004e-06
    48    4.937645835428e-17
    49   -1.493370138618e-05
    50   -1.076874211393e-16
    51    1.081828655801e-04
    52   -3.592159064178e-04
    53   -9.566337903719e-18
    54   -3.926932439063e-04
    55    3.325887227060e-16
    56    6.577622525506e-05
    57    4.769768419032e-05
    58   -2.025191748821e-18
    59   -8.211580300252e-05
    60    3.627595290141e-17
    61   -9.616318310681e-05
    62    1.418506073083e-16
    63   -1.128297782917e-04
    64   -1.988089808192e-04
    65    4.927525429361e-04
    66   -9.522091935365e-04
    67   -3.518864183886e-04
    68   -2.590530829223e-04
    69    2.381394178695e-17
    70    1.553388172246e-04
    71    8.118633356186e-04
    72    2.872145505364e-16
    73   -4.019502240593e-04
    74   -9.644637692739e-05
    75   -7.428622727437e-17
    76    1.333102254089e-04
    77    2.098301054435e-06
    78    5.667127545036e-06
    79   -1.851294492028e-17
    80   -1.493370138601e-05
    81    7.735886461639e-17
    82    1.081828655808e-04
    83    3.592159064189e-04
    84    1.529696841200e-16
    85   -3.926932439078e-04
    86   -3.008212923886e-16
    87    6.577622525509e-05
    88   -4.769768419060e-05
    89    1.407545887751e-17
    90   -8.211580300280e-05
    91   -1.441088138693e-17
    92    9.616318310700e-05
    93   -8.002358544076e-17
Sym=X
Ene= -1.672456
Spin=Alpha
Occup=1
     1   -7.252548047974e-02
     2   -1.691780956404e-01
     3    2.733785265694e-01
     4    2.096775403183e-01
     5    1.125252322596e-02
     6    8.548262562346e-16
     7    3.668148879785e-17
     8   -7.272463149832e-02
     9   -1.401496675612e-14
    10   -5.637432545529e-16
    11   -3.347513797358e-02
    12   -3.226707656382e-14
    13   -7.349143817718e-16
    14    2.898372402506e-03
    15   -4.613798829331e-03
    16   -2.520086150635e-16
    17   -1.815668949263e-17
    18    1.510706760106e-02
    19    1.507653163017e-16
    20   -1.907906690527e-03
    21    3.437698777974e-15
    22    4.243183790498e-16
    23    3.613533009919e-03
    24   -7.821284825037e-16
    25    4.448462947763e-03
    26    9.279139536292e-16
    27    3.775614176339e-17
    28   -5.764708708187e-03
    29    1.035427570284e-16
    30    9.763206374473e-18
    31   -2.306490620725e-16
    32   -5.272981458811e-02
    33   -1.270462807812e-01
    34    1.740542296941e-01
    35    2.556647064740e-01
    36    6.346202335972e-02
    37    7.860549169599e-02
    38   -1.802365472365e-16
    39    2.355979617870e-02
    40    7.917373156917e-02
    41    2.054583212673e-17
    42    2.532277238815e-02
    43    7.598723270378e-03
    44    6.749383033711e-16
    45    1.451927779490e-03
    46   -2.426603803181e-03
    47    3.817118023936e-03
    48    1.495949973827e-17
    49    5.478423133263e-03
    50   -1.490451991152e-16
    51   -7.576742541995e-03
    52    1.270277428517e-02
    53   -1.444158672368e-16
    54    1.711381438851e-02
    55    2.675288560264e-16
    56   -2.168405521570e-03
    57   -1.055546672611e-03
    58   -5.333082746874e-17
    59    3.111216088659e-03
    60    5.541911052476e-17
    61    3.238619164095e-03
    62    1.257268117393e-16
    63   -5.272981458811e-02
    64   -1.270462807812e-01
    65    1.740542296941e-01
    66    2.556647064740e-01
    67    6.346202335979e-02
    68   -7.860549169599e-02
    69   -3.529842065499e-17
    70    2.355979617870e-02
    71   -7.917373156918e-02
    72    7.817521184937e-16
    73    2.532277238815e-02
    74   -7.598723270404e-03
    75    3.391359469746e-16
    76    1.451927779508e-03
    77   -2.426603803181e-03
    78   -3.817118023936e-03
    79   -3.764355206734e-17
    80    5.478423133263e-03
    81    1.057244811775e-16
    82   -7.576742541996e-03
    83   -1.270277428518e-02
    84    3.891140009307e-16
    85    1.711381438851e-02
    86   -6.269956407146e-16
    87   -2.168405521570e-03
    88    1.055546672611e-03
    89   -1.451673920063e-16
    90    3.111216088659e-03
    91    2.365465008546e-17
    92   -3.238619164095e-03
    93   -5.309404414371e-17
Sym=X
Ene= -1.493368
Spin=Alpha
Occup=1
     1    1.015362003676e-15
     2    2.154689645617e-15
     3   -7.316530684020e-15
     4    1.006992079815e-14
     5    6.902036366538e-14
     6    2.205051348734e-01
     7   -3.954288775660e-17
     8    3.727088308036e-16
     9    1.074073829904e-01
    10   -5.175027870995e-16
    11   -3.315966176993e-15
    12   -1.682224244958e-04
    13    2.900141182807e-15
    14   -2.312174461803e-14
    15    7.830924555897e-17
    16   -1.594059595766e-02
    17    2.189303527722e-16
    18   -1.153887930540e-15
    19   -1.373318983533e-16
    20   -2.225880552482e-16
    21   -7.943791012074e-03
    22   -3.802958160161e-16
    23    6.668612750579e-15
    24    6.364912950250e-16
    25    1.424886850728e-16
    26   -2.433073882391e-03
    27    9.741767159736e-17
    28    2.142745205797e-17
    29   -1.213301162406e-16
    30    4.269897361592e-03
    31    1.623479334833e-17
    32    6.595933728159e-02
    33    1.597349732636e-01
    34   -2.246018773546e-01
    35   -3.254595327985e-01
    36   -1.051530283798e-01
    37   -6.255594457093e-02
    38   -1.212686008997e-16
    39   -3.204887538038e-02
    40   -6.843992022658e-02
    41    5.698705927654e-16
    42   -3.206059218729e-02
    43   -9.282392606189e-03
    44   -1.809286527130e-15
    45   -4.733947685960e-03
    46    1.381756505340e-03
    47   -4.445002424864e-03
    48    1.727672889819e-17
    49   -4.658233998256e-03
    50   -2.810787990024e-17
    51    6.309687148214e-03
    52   -1.404586757978e-02
    53   -1.665068674399e-17
    54   -1.549032040967e-02
    55   -1.352508752749e-16
    56    2.745067547870e-03
    57    9.748169338438e-04
    58   -1.383021620279e-17
    59   -3.509109838071e-03
    60    5.306680986500e-17
    61   -2.970810342207e-03
    62    6.617358022651e-17
    63   -6.595933728159e-02
    64   -1.597349732636e-01
    65    2.246018773546e-01
    66    3.254595327985e-01
    67    1.051530283798e-01
    68   -6.255594457093e-02
    69    2.910131762394e-16
    70    3.204887538038e-02
    71   -6.843992022657e-02
    72   -1.477653498101e-16
    73    3.206059218728e-02
    74   -9.282392606152e-03
    75   -1.395609324411e-15
    76    4.733947685960e-03
    77   -1.381756505341e-03
    78   -4.445002424864e-03
    79    1.102233698831e-16
    80    4.658233998256e-03
    81   -5.827283556825e-17
    82   -6.309687148213e-03
    83   -1.404586757978e-02
    84   -2.917503618996e-16
    85    1.549032040967e-02
    86    4.062412472440e-16
    87   -2.745067547870e-03
    88    9.748169338438e-04
    89    9.801523985744e-17
    90    3.509109838071e-03
    91    6.715396256696e-18
    92   -2.970810342206e-03
    93   -1.219119047355e-16
Sym=X
Ene= -0.948998
Spin=Alpha
Occup=1
     1   -6.247626569493e-02
     2   -1.485458013384e-01
     3    2.418915951773e-01
     4    3.319913276052e-01
     5    5.932194781404e-02
     6    1.771486770680e-15
     7   -8.472628009960e-16
     8    9.215613336174e-04
     9   -3.542549579716e-14
    10   -1.059667925998e-15
    11    1.142852319695e-03
    12   -1.444304919301e-14
    13   -7.107798565682e-16
    14    5.848157149153e-03
    15   -1.885363835525e-03
    16    9.019971573684e-16
    17    1.492887408486e-17
    18    4.837861402512e-03
    19   -1.631285347377e-17
    20   -8.370013260229e-04
    21    1.351532246471e-14
    22   -6.206030936381e-17
    23    4.855003033537e-04
    24    4.363541523270e-17
    25    2.298572961176e-03
    26   -4.083934646802e-16
    27    2.623220156875e-17
    28   -3.059837191732e-03
    29    1.124159284265e-17
    30   -2.635351099946e-15
    31    4.421218440952e-17
    32    5.071926794681e-02
    33    1.243968224312e-01
    34   -1.902672687922e-01
    35   -2.795278761759e-01
    36   -1.777369560619e-01
    37    1.708196132118e-01
    38   -8.082410279966e-17
    39    7.937882918870e-02
    40    1.353761973891e-01
    41   -3.776312559691e-16
    42    6.466147338658e-02
    43    4.447651817668e-02
    44    2.790898006363e-16
    45    2.289739092276e-02
    46   -2.106938973868e-03
    47    4.988368088105e-03
    48    7.139992407293e-18
    49    5.355653116545e-03
    50    1.471428962319e-18
    51   -4.538432924107e-03
    52    1.095910546590e-02
    53   -4.137554500520e-17
    54    1.131805069444e-02
    55   -1.395700515795e-16
    56   -1.587252053762e-03
    57   -4.860379343773e-05
    58    9.445491064552e-19
    59    2.313700697004e-03
    60   -1.994647047984e-17
    61    1.743283067309e-03
    62   -5.662965636652e-17
    63    5.071926794681e-02
    64    1.243968224312e-01
    65   -1.902672687922e-01
    66   -2.795278761759e-01
    67   -1.777369560619e-01
    68   -1.708196132118e-01
    69    3.375054551659e-16
    70    7.937882918869e-02
    71   -1.353761973891e-01
    72    8.653497938414e-17
    73    6.466147338659e-02
    74   -4.447651817669e-02
    75    7.031383393008e-16
    76    2.289739092277e-02
    77   -2.106938973867e-03
    78   -4.988368088105e-03
    79   -2.401960880779e-17
    80    5.355653116544e-03
    81   -9.028281558294e-18
    82   -4.538432924113e-03
    83   -1.095910546591e-02
    84   -3.203209552257e-18
    85    1.131805069445e-02
    86    1.237875402877e-16
    87   -1.587252053763e-03
    88    4.860379343805e-05
    89    3.896844423892e-17
    90    2.313700697005e-03
    91    3.522180393591e-17
    92   -1.743283067310e-03
    93   -7.675699016178e-17
Sym=X
Ene= -0.797481
Spin=Alpha
Occup=1
     1   -2.927752101763e-15
     2   -6.672156247224e-15
     3    5.136194702016e-15
     4    3.971533332740e-14
     5   -1.742809073290e-14
     6    2.724472120953e-01
     7    1.622965884475e-16
     8    4.210676579090e-14
     9    2.001095386774e-01
    10    6.976270180351e-17
    11    3.100204394042e-14
    12    2.063213366044e-02
    13    2.915575105791e-16
    14    1.783800498708e-14
    15   -1.892728860498e-15
    16   -1.181647745986e-02
    17    5.361567717524e-18
    18    6.665905137586e-16
    19   -1.026236920332e-17
    20   -6.769113872559e-15
    21   -1.876985372495e-03
    22   -4.740907015756e-17
    23    6.452882876818e-15
    24    2.108901166890e-17
    25    3.562995103726e-16
    26   -4.170461526664e-03
    27   -3.216743069860e-18
    28   -2.220573010267e-16
    29   -5.016898023448e-17
    30    5.627244871854e-03
    31   -2.044304072757e-18
    32   -3.250400878762e-02
    33   -7.993335917036e-02
    34    1.267737182755e-01
    35    1.838267773902e-01
    36    1.495554398764e-01
    37   -2.273296065619e-01
    38    7.399891235485e-17
    39   -1.308612703622e-01
    40   -1.902775003646e-01
    41    3.013309884884e-16
    42   -1.102756264034e-01
    43   -7.254424902610e-02
    44   -1.512120844726e-16
    45   -4.310825956399e-02
    46    1.984530567016e-03
    47   -7.840205376376e-03
    48   -1.190184480520e-17
    49   -7.275321588384e-03
    50    1.825361268824e-17
    51    5.833394528540e-03
    52   -1.813648150153e-02
    53    3.750868581125e-17
    54   -1.693002585965e-02
    55    8.591887371008e-17
    56    3.064004313551e-03
    57    4.855541154987e-04
    58    4.525379460224e-18
    59   -3.924982398828e-03
    60    2.517364900905e-17
    61   -2.909231446361e-03
    62    3.533952830034e-17
    63    3.250400878762e-02
    64    7.993335917036e-02
    65   -1.267737182755e-01
    66   -1.838267773902e-01
    67   -1.495554398763e-01
    68   -2.273296065619e-01
    69    1.638700968038e-16
    70    1.308612703623e-01
    71   -1.902775003646e-01
    72    1.776219007270e-16
    73    1.102756264035e-01
    74   -7.254424902610e-02
    75   -1.783987745560e-16
    76    4.310825956402e-02
    77   -1.984530567015e-03
    78   -7.840205376378e-03
    79    4.337244990396e-17
    80    7.275321588382e-03
    81   -5.055261055540e-17
    82   -5.833394528535e-03
    83   -1.813648150153e-02
    84   -5.044724127794e-17
    85    1.693002585965e-02
    86    8.645291249680e-17
    87   -3.064004313551e-03
    88    4.855541154971e-04
    89   -1.774045357739e-18
    90    3.924982398828e-03
    91   -1.003597638616e-17
    92   -2.909231446360e-03
    93   -5.531674516229e-17
Sym=X
Ene= -0.829561
Spin=Alpha
Occup=1
     1   -1.607551931587e-02
     2   -3.798850207040e-02
     3    6.556104291942e-02
     4    7.523926325365e-02
     5    3.652861702476e-02
     6   -4.283284865865e-14
     7   -1.133492130258e-14
     8    2.694521722899e-01
     9   -3.330945880307e-14
    10   -1.091497484080e-14
    11    2.393157674291e-01
    12   -6.072836774983e-15
    13   -4.721425727122e-15
    14    6.436742466346e-02
    15   -1.141244120609e-02
    16    1.605140964047e-15
    17    3.184904362183e-16
    18    2.836156831849e-03
    19   -3.422043385227e-18
    20   -2.281923403787e-02
    21    1.069127613153e-15
    22    7.716419606949e-16
    23    5.741419013274e-03
    24   -4.539244030180e-17
    25   -3.512924090852e-03
    26    7.258286044145e-16
    27    4.976510194438e-17
    28    6.061125266812e-03
    29   -8.740883727984e-18
    30   -9.240205160660e-16
    31   -3.668900006738e-16
    32   -4.680491467365e-03
    33   -1.154438741210e-02
    34    1.708814145729e-02
    35    2.990231519581e-02
    36    3.926573606520e-02
    37   -1.420050023939e-01
    38   -7.636768270376e-15
    39    2.106483448442e-01
    40   -1.183702994306e-01
    41   -6.677077426723e-15
    42    1.903800379737e-01
    43   -4.717222546588e-02
    44   -2.150391896462e-15
    45    8.877614183691e-02
    46    5.330858951768e-03
    47    4.440617219103e-03
    48   -1.111362338394e-16
    49   -4.296177087689e-03
    50   -3.123949117842e-16
    51    1.398941790727e-02
    52    1.403729730682e-02
    53   -4.035536076734e-16
    54   -9.863315915073e-03
    55   -7.450448529506e-16
    56   -8.736696880496e-04
    57    5.543278101363e-03
    58    2.894436165272e-17
    59    1.751193592116e-03
    60   -1.222961455510e-16
    61   -2.343505827176e-03
    62   -1.547905866257e-16
    63   -4.680491467376e-03
    64   -1.154438741213e-02
    65    1.708814145732e-02
    66    2.990231519587e-02
    67    3.926573606525e-02
    68    1.420050023940e-01
    69   -8.138781124173e-15
    70    2.106483448441e-01
    71    1.183702994307e-01
    72   -7.342071191513e-15
    73    1.903800379737e-01
    74    4.717222546590e-02
    75   -2.426446199825e-15
    76    8.877614183690e-02
    77    5.330858951769e-03
    78   -4.440617219100e-03
    79   -1.320098922512e-16
    80   -4.296177087692e-03
    81    3.157613573198e-16
    82    1.398941790727e-02
    83   -1.403729730681e-02
    84   -3.720836849472e-16
    85   -9.863315915078e-03
    86    8.423275255383e-16
    87   -8.736696880486e-04
    88   -5.543278101363e-03
    89    3.255784321185e-18
    90    1.751193592114e-03
    91    1.343240895638e-16
    92    2.343505827177e-03
    93   -1.908982062738e-16
Sym=X
Ene= -0.763467
Spin=Alpha
Occup=1
     1   -7.919470491768e-16
     2   -1.744287451546e-15
     3    4.933028432559e-15
     4   -6.497857480565e-15
     5   -5.169657847632e-15
     6   -6.213394765696e-16
     7    2.862895922570e-01
     8    9.517509912014e-15
     9    1.219047345014e-14
    10    2.680918875923e-01
    11    1.119218071347e-14
    12    5.765420119888e-15
    13    8.987655052093e-02
    14    4.182735679490e-15
    15   -4.157060104438e-16
    16   -1.059181802642e-16
    17   -9.315780556478e-03
    18    6.244695560014e-17
    19   -8.159096263529e-17
    20    2.555461372362e-16
    21   -4.962504441392e-15
    22   -2.101451949169e-02
    23   -2.809195782888e-15
    24    3.383863074755e-16
    25   -4.240843969127e-16
    26   -4.044844725180e-18
    27   -1.569905033426e-03
    28    6.834526648572e-16
    29   -4.149760580566e-17
    30    8.403155022215e-16
    31    1.009246949443e-02
    32   -2.477070717309e-16
    33   -3.630800264933e-16
    34   -2.023147394855e-15
    35    9.684672950745e-15
    36    1.415017230754e-14
    37   -5.425737812994e-15
    38    2.366273148264e-01
    39    8.134443914751e-15
    40    4.290256827589e-15
    41    2.146139819801e-01
    42    1.070078766299e-14
    43    2.673748062399e-15
    44    8.992182446010e-02
    45    5.655816384932e-15
    46    2.302266487607e-16
    47    8.269812981567e-17
    48    3.302414627351e-03
    49   -2.572561321176e-16
    50    8.295489910401e-03
    51   -6.404231319431e-16
    52    2.703828298465e-15
    53    1.023622083445e-02
    54    2.433622462312e-15
    55    2.356996362570e-02
    56   -2.360185767551e-16
    57    1.096895847764e-16
    58   -8.055267189470e-04
    59    3.552564722603e-16
    60    3.518093150787e-03
    61    2.308064861184e-16
    62    4.768966291339e-03
    63   -3.513552217793e-16
    64   -6.233717968356e-16
    65    9.751698481170e-16
    66   -2.317620119794e-15
    67   -1.511324381108e-15
    68    4.639582532286e-15
    69    2.366273148264e-01
    70    7.620637261900e-15
    71    6.818707830706e-15
    72    2.146139819801e-01
    73    6.493759655773e-15
    74    1.887046523405e-15
    75    8.992182446010e-02
    76    2.018158059594e-15
    77    1.343162431627e-16
    78   -1.804603290825e-16
    79    3.302414627351e-03
    80   -1.029033433800e-16
    81   -8.295489910401e-03
    82    1.175327228313e-15
    83   -7.359114879235e-17
    84    1.023622083445e-02
    85   -1.174827542385e-15
    86   -2.356996362570e-02
    87    4.892785714250e-17
    88   -2.413045280395e-16
    89   -8.055267189470e-04
    90   -2.317864408743e-17
    91   -3.518093150787e-03
    92    1.564501991917e-16
    93    4.768966291339e-03
Sym=X
Ene= -0.592619
Spin=Alpha
Occup=1
     1   -3.879715457106e-16
     2   -8.856405695398e-16
     3   -5.206692410011e-17
     4    9.263437762432e-15
     5   -8.836084119265e-15
     6   -8.613953059200e-03
     7    2.916349814615e-16
     8    2.785647078957e-16
     9    1.734424994399e-02
    10    3.807236644065e-16
    11   -1.138239529190e-15
    12    6.073170283696e-02
    13   -9.750556395351e-17
    14    3.160735092665e-15
    15    2.940886869000e-17
    16    2.045113324136e-02
    17   -1.195909081356e-17
    18    9.504909831352e-17
    19   -1.581964869572e-16
    20   -1.005413650508e-15
    21    3.801654507851e-02
    22   -5.429278629892e-17
    23    2.127080780360e-15
    24   -4.731959809183e-16
    25    3.764867748507e-16
    26   -1.044402362059e-02
    27   -2.516222092153e-18
    28   -3.999570032596e-16
    29    7.979550893836e-17
    30    3.296248892465e-03
    31    2.415815394671e-17
    32   -1.711263934719e-03
    33   -4.292007635497e-03
    34    3.963958511277e-03
    35    1.056305767784e-02
    36    5.455710887559e-02
    37    1.863890097179e-01
    38    2.590053027310e-15
    39   -2.925404423686e-01
    40    1.753584673134e-01
    41    2.239436943371e-15
    42   -2.649018970064e-01
    43    1.120328425695e-01
    44    1.642039672845e-15
    45   -1.536114601779e-01
    46   -3.848607527537e-03
    47   -2.214290054368e-03
    48    2.024429510397e-17
    49    3.179151379039e-03
    50    5.141586400727e-17
    51   -1.320675286279e-02
    52   -7.818466797405e-03
    53    5.795401300965e-17
    54    1.154982591703e-02
    55    1.401653535159e-16
    56   -1.570739875574e-04
    57   -3.868637713810e-03
    58   -1.099910370334e-17
    59    1.284443557466e-04
    60    2.329480538532e-17
    61    1.838741824304e-03
    62    2.157999413243e-17
    63    1.711263934720e-03
    64    4.292007635499e-03
    65   -3.963958511277e-03
    66   -1.056305767785e-02
    67   -5.455710887558e-02
    68    1.863890097179e-01
    69   -2.199299804230e-15
    70    2.925404423686e-01
    71    1.753584673134e-01
    72   -1.962178131541e-15
    73    2.649018970064e-01
    74    1.120328425695e-01
    75   -1.304734316711e-15
    76    1.536114601779e-01
    77    3.848607527537e-03
    78   -2.214290054368e-03
    79   -4.231739647942e-17
    80   -3.179151379040e-03
    81    1.726107248649e-17
    82    1.320675286279e-02
    83   -7.818466797404e-03
    84   -2.244465820931e-17
    85   -1.154982591703e-02
    86    9.972385811138e-17
    87    1.570739875576e-04
    88   -3.868637713810e-03
    89    6.689804974633e-18
    90   -1.284443557467e-04
    91    3.233878509171e-17
    92    1.838741824304e-03
    93   -2.247041305194e-17
Sym=X
Ene= -0.532218
Spin=Alpha
Occup=1
     1    3.940471642396e-16
     2    6.283660897655e-16
     3   -2.893826705108e-15
     4    1.090292517584e-14
     5    5.915771398663e-15
     6   -3.616806034610e-17
     7    1.112202026744e-16
     8    5.209115675505e-16
     9   -5.657172888590e-15
    10    1.424522873086e-16
    11   -2.910951328656e-15
    12   -2.193369527759e-15
    13    1.944810888397e-16
    14   -1.371582600350e-15
    15   -2.014005902988e-17
    16    1.880206346574e-16
    17    8.222509264396e-18
    18    5.080779758244e-17
    19    2.216583100850e-02
    20   -1.498801848762e-15
    21    2.604874449100e-15
    22   -1.567031851455e-16
    23    3.700449176374e-15
    24    6.217298192993e-02
    25    3.802029107362e-16
    26   -5.629217007435e-17
    27    1.896979764477e-17
    28   -5.646947543883e-16
    29   -7.753638110764e-03
    30   -3.750205655107e-16
    31    1.151661479756e-17
    32   -1.443173546621e-16
    33   -3.946348574697e-16
    34    2.164262789827e-15
    35   -6.435326519137e-15
    36   -7.346294226134e-15
    37    1.306578574409e-15
    38   -3.327045226403e-01
    39   -1.851219713979e-15
    40   -4.935546410726e-15
    41   -3.031434195942e-01
    42   -4.369060244624e-15
    43   -2.127903220777e-15
    44   -2.009811393019e-01
    45   -2.290043160056e-15
    46   -4.995380710241e-17
    47    5.154241484731e-17
    48   -2.482511885025e-03
    49    7.851728271392e-17
    50   -5.286029520823e-03
    51    5.757384855931e-16
    52   -1.674948684636e-15
    53   -7.797868145108e-03
    54   -1.801000033841e-15
    55   -1.987160706243e-02
    56    1.411480246123e-16
    57    2.360572676693e-17
    58    6.395240742481e-04
    59   -2.136779368519e-16
    60   -3.000111794234e-03
    61   -1.855039964077e-16
    62   -3.296199543729e-03
    63    1.539157097005e-16
    64    2.220016889427e-16
    65    2.815812136377e-16
    66   -1.110267090370e-15
    67   -1.501745839437e-15
    68    1.814974013108e-15
    69    3.327045226403e-01
    70    2.308903698217e-15
    71    2.362905053000e-15
    72    3.031434195942e-01
    73    1.060617078748e-15
    74    1.835533077131e-15
    75    2.009811393019e-01
    76    1.338678380838e-15
    77    6.698066033666e-17
    78   -2.375610036747e-17
    79    2.482511885025e-03
    80   -4.689140325183e-17
    81   -5.286029520823e-03
    82   -8.204344892529e-17
    83    4.082955151154e-16
    84    7.797868145108e-03
    85   -3.872550165486e-16
    86   -1.987160706243e-02
    87    3.122746534873e-17
    88   -4.388987980473e-17
    89   -6.395240742481e-04
    90   -3.848529682087e-17
    91   -3.000111794234e-03
    92    7.594321969326e-17
    93    3.296199543729e-03
Sym=X
Ene= -0.507958
Spin=Alpha
Occup=1
     1   -3.311792966029e-02
     2   -7.986836254751e-02
     3    1.408601327532e-01
     4    2.195700559792e-01
     5    3.489868859680e-01
     6    2.266709266877e-15
     7   -3.253070583926e-14
     8    3.591018983763e-01
     9   -9.271433950988e-14
    10   -3.365996957430e-14
    11    3.243971930204e-01
    12   -1.247983043443e-13
    13   -4.937350213809e-14
    14    1.368938224578e-01
    15    1.562817684400e-02
    16   -2.508921086740e-16
    17   -3.245601826923e-16
    18   -1.866442527190e-02
    19   -2.849143916374e-17
    20    4.157659182742e-02
    21    3.942663607307e-14
    22   -9.165207771762e-16
    23   -3.518956773088e-02
    24    1.600172386175e-16
    25   -1.883490617929e-03
    26    2.423049581953e-17
    27    1.386007144541e-16
    28    2.801058711005e-03
    29   -3.837994989391e-17
    30   -5.368476197819e-15
    31    2.013395707443e-16
    32    8.443819916535e-03
    33    2.104231369333e-02
    34   -3.254136653092e-02
    35   -3.640542107934e-02
    36   -6.788745045072e-02
    37   -3.529753979659e-02
    38    2.176846738686e-14
    39   -2.618855337575e-01
    40   -2.654593667774e-02
    41    1.934143853273e-14
    42   -2.347331027965e-01
    43   -1.892266653206e-02
    44    3.465064680177e-14
    45   -1.929497598432e-01
    46    2.110606601889e-03
    47   -1.461245770179e-03
    48   -2.466730529526e-16
    49   -3.632016301293e-03
    50   -5.554115490647e-16
    51    3.215624639291e-03
    52   -4.950711312142e-03
    53   -5.962378615911e-16
    54   -7.405104107035e-03
    55   -7.569276648341e-16
    56    7.262043031818e-04
    57    3.693208496827e-04
    58   -3.075525838929e-17
    59   -1.398647734249e-03
    60   -9.575044941447e-17
    61   -1.884266366753e-03
    62   -1.275395263198e-16
    63    8.443819916535e-03
    64    2.104231369333e-02
    65   -3.254136653094e-02
    66   -3.640542107926e-02
    67   -6.788745045046e-02
    68    3.529753979660e-02
    69    2.142700228496e-14
    70   -2.618855337575e-01
    71    2.654593667766e-02
    72    1.882454563011e-14
    73   -2.347331027965e-01
    74    1.892266653198e-02
    75    3.445821544400e-14
    76   -1.929497598431e-01
    77    2.110606601890e-03
    78    1.461245770180e-03
    79   -2.421562862014e-16
    80   -3.632016301294e-03
    81    5.294157631680e-16
    82    3.215624639277e-03
    83    4.950711312123e-03
    84   -6.554348568224e-16
    85   -7.405104107007e-03
    86    9.325786274275e-16
    87    7.262043031799e-04
    88   -3.693208496814e-04
    89   -2.259507277466e-17
    90   -1.398647734247e-03
    91    1.179748288695e-16
    92    1.884266366751e-03
    93   -1.802672780302e-16
Sym=X
Ene= 0.070946
Spin=Alpha
Occup=0
     1   -3.123194461161e-15
     2   -7.505218788126e-15
     3    1.338234249289e-14
     4    2.118118107233e-14
     5    1.165185140609e-14
     6    1.318006287162e-16
     7    3.771826129811e-01
     8    3.321126947133e-14
     9    1.461102990374e-15
    10    3.899812581576e-01
    11    3.120935534504e-14
    12    1.603833433309e-15
    13    5.622642150039e-01
    14    1.113221442210e-14
    15    1.616005909257e-15
    16   -2.512014201865e-17
    17    4.996032162714e-03
    18   -1.549941011950e-15
    19    8.934502808609e-17
    20    4.311677241887e-15
    21   -4.150675765028e-16
    22    1.480655284122e-02
    23   -3.986096744955e-15
    24   -7.054430398975e-16
    25   -1.231333449254e-16
    26   -2.265687017204e-17
    27   -6.830683441995e-04
    28    4.110320607472e-16
    29    1.178546235081e-16
    30    7.551475132121e-17
    31   -2.984508032463e-03
    32    7.044840432807e-16
    33    1.806868963735e-15
    34   -3.108633921636e-15
    35   -2.390728961147e-15
[...]
    80    6.025503595001e-03
    81   -9.403972222790e-18
    82    3.688275963864e-02
    83    5.189191955193e-02
    84   -1.309367423644e-16
    85   -7.009434412496e-02
    86   -7.457013872839e-17
    87    3.025146135604e-03
    88   -5.103970337352e-03
    89   -1.034388826089e-16
    90   -2.459539122277e-03
    91    3.324806599813e-16
    92    4.762433433428e-03
    93   -4.897313536633e-17
Sym=X
Ene= 0.385177
Spin=Alpha
Occup=0
     1    4.825605848489e-02
     2    1.059745364669e-01
     3    4.662487434131e-02
     4   -1.662915136309e+00
     5   -8.377060078286e-01
     6   -1.149813808398e-14
     7    2.040322705536e-15
     8   -4.351765480492e-02
     9   -6.684926550878e-15
    10    5.747938425745e-15
    11   -2.296613198542e-01
    12   -3.156362790568e-13
    13   -9.152958431224e-15
    14    1.673028324504e+00
    15    6.334520635059e-03
    16   -1.865455761460e-15
    17    1.871766579906e-16
    18    4.933194769793e-03
    19   -1.556722004157e-17
    20    3.125141486716e-02
    21   -1.604448808735e-16
    22   -5.434059835334e-16
    23   -4.879824907632e-02
    24    3.011830850007e-16
    25   -6.025453280222e-03
    26    1.810230878082e-16
    27   -7.886226157107e-17
    28    8.164630643480e-03
    29   -3.401447448484e-17
    30    3.599691201666e-16
    31    3.820012840051e-16
    32   -1.431416532443e-02
    33   -3.556412809073e-02
    34    4.334003595628e-02
    35    1.055027390904e-01
    36    1.069972111443e+00
    37    9.560494063682e-02
    38   -3.859065676862e-16
    39   -3.178298683628e-02
    40    1.509642414083e-01
    41   -4.985087795898e-16
    42   -2.592093213169e-02
    43    7.957025028190e-01
    44    1.444696876452e-15
    45    1.523432133500e-02
    46    4.095497094737e-03
    47   -4.191724140092e-03
    48    7.905609155107e-17
    49   -7.295493256893e-03
    50    2.503372228975e-17
    51   -1.196630542907e-02
    52    1.236888103909e-02
    53   -1.887053620468e-16
    54    3.773933017174e-02
    55   -2.376180317652e-17
    56   -1.389140389191e-03
    57    4.314116957835e-04
    58   -2.313373727102e-17
    59    2.748618302709e-03
    60   -7.489035393027e-17
    61    2.702709342671e-03
    62   -8.271912957699e-17
    63   -1.431416532443e-02
    64   -3.556412809075e-02
    65    4.334003595631e-02
    66    1.055027390904e-01
    67    1.069972111443e+00
    68   -9.560494063682e-02
    69   -3.480678930785e-16
    70   -3.178298683626e-02
    71   -1.509642414083e-01
    72   -3.133083276805e-16
    73   -2.592093213168e-02
    74   -7.957025028192e-01
    75    8.770638103638e-16
    76    1.523432133513e-02
    77    4.095497094737e-03
    78    4.191724140093e-03
    79   -9.811347943979e-18
    80   -7.295493256893e-03
    81   -3.546124916415e-17
    82   -1.196630542907e-02
    83   -1.236888103909e-02
    84   -7.517720437899e-17
    85    3.773933017174e-02
    86    1.618818091399e-16
    87   -1.389140389190e-03
    88   -4.314116957833e-04
    89   -1.043258694283e-16
    90    2.748618302709e-03
    91    1.156836145677e-16
    92   -2.702709342671e-03
    93   -8.344247035289e-17
Sym=X
Ene= 0.430818
Spin=Alpha
Occup=0
     1    7.266011359596e-16
     2    1.623608514526e-15
     3   -1.416899362438e-15
     4   -1.634494502289e-14
     5    1.571740286726e-14
     6    7.562824529287e-16
     7   -1.916304947299e-01
     8    1.719646243946e-15
     9   -6.171174476833e-15
    10   -6.732088093088e-01
    11    2.510438584520e-15
    12    9.394990009390e-15
    13    1.332347225743e+00
    14   -7.059496532761e-16
    15    5.981031396353e-17
    16    1.562675349632e-17
    17    6.814719331402e-03
    18   -2.007771514159e-17
    19    1.365462553280e-16
    20   -1.054766184368e-15
    21    2.558291374153e-15
    22    3.946424684050e-02
    23    1.760627109334e-15
    24   -6.934986676229e-16
    25    7.067455836166e-17
    26    5.658475780566e-17
    27    2.350514685036e-04
    28   -3.592829940671e-17
    29   -1.357067929708e-16
    30   -4.912067274555e-16
    31   -5.478436461148e-03
    32   -3.089563898552e-16
    33   -6.865719802294e-16
    34    1.433678512425e-15
    35   -2.343748015330e-16
    36   -4.557705846526e-16
    37    1.906218816042e-15
    38   -7.951128229398e-02
    39    1.010554549842e-15
    40   -2.240225342666e-15
    41   -1.772016363087e-01
    42    6.243334086940e-16
    43    6.220060302981e-15
    44    2.237688640603e-02
    45   -1.809073423097e-16
    46    3.099392153920e-17
    47   -2.956029793458e-17
    48   -1.678462575912e-03
    49   -8.259749713790e-17
    50   -4.231542517660e-03
    51    7.471915400064e-16
    52   -9.619259181225e-16
    53   -3.651444318555e-03
    54   -1.208963188014e-15
    55   -1.561909641635e-02
    56    5.654427299833e-17
    57   -3.500093646055e-17
    58   -3.070936606923e-05
    59   -9.468549126330e-17
    60    7.836607288615e-04
    61   -7.299081844760e-17
    62    1.043584466125e-03
    63   -1.685918505918e-16
    64   -4.111902356936e-16
    65   -5.256070446894e-16
    66    6.827248289065e-15
    67   -1.097737939435e-14
    68   -2.004260330756e-15
    69   -7.951128229398e-02
    70   -1.192368524140e-16
    71   -4.283599840444e-15
    72   -1.772016363087e-01
    73    1.929168578014e-16
    74   -1.787238414769e-15
    75    2.237688640604e-02
    76   -1.621956779379e-16
    77    5.107377235710e-17
    78    1.306317236632e-17
    79   -1.678462575912e-03
    80   -1.392400374483e-16
    81    4.231542517660e-03
    82   -3.257725838963e-16
    83   -2.025462813963e-16
    84   -3.651444318554e-03
    85    6.941572857146e-16
    86    1.561909641635e-02
    87   -9.924517427201e-17
    88    7.472515815663e-17
    89   -3.070936606901e-05
    90    9.384943305832e-17
    91   -7.836607288619e-04
    92   -6.694566214788e-17
    93    1.043584466125e-03
Sym=X
Ene= 0.476878
Spin=Alpha
Occup=0
     1   -4.305582091223e-02
     2   -9.892302114380e-02
     3   -1.233884942120e-02
     4    1.575510200535e+00
     5   -7.353123801861e-01
     6   -1.462831552830e-14
     7   -8.143182447187e-16
     8   -2.038159069597e-01
     9   -1.400505276702e-13
    10   -4.882931104091e-15
    11   -6.495917114770e-01
    12    6.711787549922e-14
    13    1.141072357939e-14
    14    7.712917753641e-01
    15    2.559915061745e-03
    16    3.125150771203e-16
    17    6.909739814846e-17
    18    5.543341798656e-03
    19    6.710950361440e-17
    20    5.943838117114e-02
    21    4.091796087785e-14
    22    5.852104736120e-16
    23   -2.334700782397e-02
    24    1.039362103383e-18
    25    8.830952576730e-03
    26    3.804762365712e-16
    27   -1.748123634128e-16
    28   -1.457002942390e-02
    29   -9.214473652748e-17
    30   -8.163457524795e-15
    31    4.479692454591e-17
    32    1.128735955765e-02
    33    2.671911720445e-02
    34   -7.004925664380e-03
    35   -1.835700508413e-01
    36    9.757351535465e-02
    37   -7.922532826284e-02
    38   -1.006382782758e-15
    39   -1.016463692909e-01
    40   -9.230528242896e-02
    41   -7.437411273512e-16
    42   -2.173751021478e-01
    43   -5.378863091821e-01
    44   -2.150184312933e-15
    45    1.012518596796e-02
    46   -8.471714957062e-03
    47    4.469006576246e-03
    48   -4.950537914064e-17
    49    1.288467927311e-02
    50   -2.063802841092e-16
    51    3.482142056286e-03
    52   -2.324539693031e-02
    53   -4.541180784123e-16
    54   -1.773262073229e-02
    55    1.802976030469e-16
    56    2.906126256837e-03
    57    2.869898861377e-03
    58    2.510671942689e-17
    59   -3.522987396788e-03
    60    5.024783205492e-18
    61   -4.750895869541e-03
    62    6.093246882605e-17
    63    1.128735955764e-02
    64    2.671911720442e-02
    65   -7.004925664452e-03
    66   -1.835700508407e-01
    67    9.757351535415e-02
    68    7.922532826285e-02
    69   -1.899207054788e-15
    70   -1.016463692909e-01
    71    9.230528242890e-02
    72   -3.120704887811e-15
    73   -2.173751021477e-01
    74    5.378863091820e-01
    75    2.602415396460e-15
    76    1.012518596795e-02
    77   -8.471714957060e-03
    78   -4.469006576245e-03
    79    2.577899694753e-17
    80    1.288467927311e-02
    81    6.738177976306e-17
    82    3.482142056267e-03
    83    2.324539693029e-02
    84   -1.968205189681e-16
    85   -1.773262073226e-02
    86    1.176204523218e-16
    87    2.906126256835e-03
    88   -2.869898861376e-03
    89   -8.792353595536e-17
    90   -3.522987396785e-03
    91    1.849142297437e-17
    92    4.750895869538e-03
    93   -3.917850126958e-18
Sym=X
Ene= 0.539691
Spin=Alpha
Occup=0
     1    3.383951425680e-15
     2    8.626260945189e-15
     3   -5.234884795474e-14
     4    1.107475133810e-13
     5    1.349094026317e-13
     6   -1.776764028099e-01
     7    2.331091277293e-16
     8    6.708882013221e-15
     9   -8.121760026777e-01
    10    8.094858696402e-16
    11   -3.384375200977e-14
    12    1.135434888839e+00
    13   -5.118836425832e-16
    14    4.835058157042e-14
    15   -7.952049779417e-17
    16    2.369848475348e-02
    17   -3.403584751267e-17
    18    1.814417100931e-15
    19    7.940549161560e-17
    20   -3.159114403992e-14
    21   -2.116763268235e-02
    22    3.183586873027e-16
    23    6.394120065125e-14
    24   -3.525702097111e-16
    25    5.063368508903e-15
    26    1.222710582436e-02
    27    4.562734475057e-17
    28   -6.980995544052e-15
    29   -1.069114476089e-16
    30   -1.535986027911e-02
    31    1.485611133909e-16
    32    1.093627102167e-02
    33    2.361729450955e-02
    34    2.308938121143e-02
    35   -2.727409955522e-01
    36    3.197352531539e-01
    37   -1.971907414701e-02
    38    9.250942911051e-16
    39    7.971674044418e-02
    40   -3.524515232423e-02
    41    2.251192211856e-15
    42    1.866737567538e-01
    43   -7.277953228073e-01
    44   -4.294603881728e-15
    45   -5.768756515662e-01
    46   -2.985600012762e-03
    47    1.562110897515e-02
    48    1.545056859082e-16
    49    1.427734152920e-02
    50   -5.343076949726e-17
    51    8.083760891786e-03
    52   -4.215682914299e-02
    53   -6.960511220828e-17
    54   -4.601055444570e-02
    55    9.793526176948e-17
    56    3.630228998230e-03
    57   -2.732439079865e-03
    58   -7.627003415430e-17
    59   -6.799715014974e-03
    60   -3.476715485960e-17
    61   -4.153601801184e-03
    62   -7.271491495255e-18
    63   -1.093627102167e-02
    64   -2.361729450955e-02
    65   -2.308938121140e-02
    66    2.727409955520e-01
    67   -3.197352531539e-01
    68   -1.971907414703e-02
    69   -1.568524868694e-16
    70   -7.971674044414e-02
    71   -3.524515232417e-02
    72   -2.802884487614e-16
    73   -1.866737567538e-01
    74   -7.277953228073e-01
    75    1.030933562380e-15
    76    5.768756515660e-01
    77    2.985600012764e-03
    78    1.562110897514e-02
    79   -5.093911588038e-17
    80   -1.427734152920e-02
    81    3.631352079130e-17
    82   -8.083760891777e-03
    83   -4.215682914295e-02
    84    1.405371306690e-16
    85    4.601055444567e-02
    86    5.105272482223e-17
    87   -3.630228998227e-03
    88   -2.732439079866e-03
    89    8.135564801038e-17
    90    6.799715014971e-03
    91    6.772427159987e-17
    92   -4.153601801181e-03
    93   -1.550616153760e-16
Sym=X
Ene= 0.588655
Spin=Alpha
Occup=0
     1    1.986024991744e-02
     2    5.333553244375e-02
     3   -3.434978104943e-01
     4    1.255352817765e+00
     5    7.777536061671e-01
     6    1.805872181463e-14
     7    8.446736297308e-16
     8    8.252215157524e-02
     9    2.993627214844e-15
    10    1.916625730480e-15
    11   -2.534319659272e-01
    12    6.931918731686e-14
    13   -1.596485960681e-15
    14    7.657035385102e-01
    15   -9.371759856952e-03
    16   -1.069886846047e-15
    17   -2.206607078014e-17
    18    3.325983381607e-02
    19   -6.533275426121e-17
    20   -1.349177087866e-01
    21    2.835878798304e-14
    22    4.139038231506e-16
    23    4.132464021871e-01
    24   -2.032458794057e-15
    25    2.594308777065e-02
    26   -5.207568920739e-16
    27   -6.649541269313e-17
    28   -3.873137474145e-02
    29    1.067602591018e-16
    30   -3.439773254824e-15
    31    9.060522470783e-17
    32   -4.177977903982e-03
    33   -1.606672826371e-02
    34    1.275028298584e-01
    35   -3.613119873984e-01
    36   -3.419911542968e-01
    37    2.058507530654e-01
    38    1.407398901884e-15
    39    1.003858564463e-01
    40    8.109478774130e-02
    41    4.533720654985e-15
    42    1.690163104267e-01
    43   -6.926408409001e-01
    44   -1.116681516355e-14
    45   -1.021598651700e+00
    46    1.846125785774e-03
    47    1.575561340782e-02
    48    9.081020779413e-17
    49    7.715748133794e-03
    50    3.396825024156e-17
    51    5.326692399609e-02
    52   -1.020844673765e-01
    53   -2.461339690345e-16
    54   -1.021846415237e-01
    55   -3.226872430603e-16
    56    5.658662805986e-03
    57    3.255930235409e-03
    58   -3.919749722916e-17
    59   -7.909637387260e-03
    60   -1.382638670173e-17
    61   -8.042445341115e-03
    62    1.207053009199e-16
    63   -4.177977903983e-03
    64   -1.606672826370e-02
    65    1.275028298584e-01
    66   -3.613119873981e-01
    67   -3.419911542972e-01
    68   -2.058507530654e-01
    69   -2.749437320737e-15
    70    1.003858564463e-01
    71   -8.109478774133e-02
    72   -5.241247799038e-15
    73    1.690163104267e-01
    74    6.926408409002e-01
    75    1.143951664979e-14
    76   -1.021598651701e+00
    77    1.846125785774e-03
    78   -1.575561340783e-02
    79   -1.715540162476e-16
    80    7.715748133796e-03
    81    1.347265688906e-16
    82    5.326692399609e-02
    83    1.020844673765e-01
    84    4.322241273634e-16
    85   -1.021846415237e-01
    86   -3.171188481871e-16
    87    5.658662805986e-03
    88   -3.255930235408e-03
    89   -1.334012084875e-17
    90   -7.909637387259e-03
    91   -1.771918152672e-16
    92    8.042445341113e-03
    93    1.135496010650e-16
Sym=X
Ene= 0.613060
Spin=Alpha
Occup=0
     1    4.316013777092e-16
     2    1.068293570766e-15
     3   -5.884006284317e-15
     4    1.875002457396e-14
     5    2.855981891254e-14
     6   -1.771540796342e-15
     7    6.818185526339e-15
     8    2.503055192816e-15
     9   -2.935145313758e-15
    10    1.183364819883e-14
    11   -1.981858583454e-15
    12   -4.698591895959e-15
    13   -7.637286630439e-14
    14   -9.361746571703e-15
    15   -8.526576583560e-17
    16    7.717089863518e-18
    17   -6.803667368441e-16
    18    5.206579827748e-16
    19   -5.245275700317e-03
    20   -1.627275156921e-15
    21   -9.460458144040e-16
    22   -1.721977583175e-15
    23    6.723781102024e-15
    24    1.681492440976e-01
    25    4.738087474391e-16
    26    4.597932669831e-17
    27    3.700104351528e-17
    28   -7.781040341358e-16
    29   -9.265734809268e-03
    30    6.556572120222e-17
    31   -4.894881114500e-16
    32   -3.935830287034e-17
    33   -1.875707516689e-16
    34    1.835638893321e-15
    35   -4.086305575618e-15
    36   -2.361308349093e-14
    37    4.358651932460e-15
    38   -1.706925426542e-01
    39   -5.151955611074e-16
    40    4.780462325804e-15
    41   -4.765983721866e-01
    42   -3.643591152714e-15
    43   -2.638140715099e-14
    44    1.053094965489e+00
    45   -3.726303184636e-15
    46   -2.182740051019e-17
    47    2.023741088202e-16
    48   -4.856218343828e-03
    49    2.884454587867e-16
    50   -9.898011405177e-03
    51    1.264324427133e-15
    52   -1.200702696111e-15
    53    1.661812277013e-02
    54   -2.086621992538e-15
    55    4.621553310291e-03
    56    5.879821472228e-17
    57    4.297341877568e-17
    58    6.036074534681e-04
    59   -1.855247038531e-16
    60    2.878804924292e-03
    61   -1.819409737035e-16
    62    2.375946046611e-03
    63   -2.156322390553e-16
    64   -6.863775859374e-16
    65    3.022700559471e-15
    66   -6.241377009169e-15
    67   -7.610367748740e-15
    68   -5.128145347008e-15
    69    1.706925426542e-01
    70    3.418329563618e-16
    71   -3.375636128722e-15
    72    4.765983721866e-01
    73   -2.373083262378e-15
    74    1.319934189930e-14
    75   -1.053094965489e+00
    76    8.313729213030e-16
    77   -2.800488669358e-17
    78   -6.655985971481e-17
    79    4.856218343828e-03
    80    9.144835156101e-17
    81   -9.898011405176e-03
    82    6.592982469320e-16
    83    1.330134641478e-15
    84   -1.661812277013e-02
    85   -2.319010369204e-15
    86    4.621553310288e-03
    87    3.741737473897e-17
    88   -1.232757851928e-16
    89   -6.036074534686e-04
    90   -6.767229982911e-17
    91    2.878804924292e-03
    92    1.946326040375e-16
    93   -2.375946046610e-03
Sym=X
Ene= 0.633157
Spin=Alpha
Occup=0
     1    2.906971406129e-02
     2    7.071963658444e-02
     3   -1.079856421817e-01
     4   -3.398876050389e-01
     5    2.315708979231e+00
     6    3.531019053650e-15
     7   -3.071703377156e-16
     8    2.204936985378e-01
     9   -9.756841055884e-15
    10   -7.527358970512e-16
    11    3.020006716535e-01
    12   -6.635156184686e-13
    13    6.305977018162e-15
    14   -1.817678584603e+00
    15   -1.768580894543e-02
    16    1.271262025675e-15
    17    2.019308940004e-16
    18    1.701407910106e-02
    19    3.212068407112e-16
    20    4.452629943284e-02
    21   -1.204322204504e-14
    22   -9.038874521563e-16
    23    4.279914530546e-02
    24   -2.661853985708e-15
    25    6.355876675180e-04
    26    3.753733142984e-16
    27    1.256271666004e-16
    28   -5.930524390692e-03
    29    2.669115456954e-16
    30    6.054259003793e-15
    31   -1.909314475906e-16
    32   -1.006499497564e-02
    33   -2.499446113750e-02
    34    2.166978287161e-02
    35    2.646101921817e-01
    36   -1.359801325310e+00
    37    2.362309205445e-01
    38    3.112902646047e-15
    39   -9.427056457709e-02
    40    4.081185432680e-01
    41    8.726799887908e-15
    42   -2.935587667166e-01
    43   -9.956480453921e-01
    44   -2.023176173534e-14
    45    8.419851122754e-01
    46   -4.278973870590e-03
    47   -4.785936603019e-03
    48    1.763536255870e-18
    49    2.891585124604e-03
    50   -3.492418005954e-18
    51    3.313441418362e-02
    52    2.085997523203e-02
    53   -1.426403727135e-16
    54   -6.009500068868e-02
    55    1.653142609860e-16
    56   -1.785397965139e-03
    57    2.517375989977e-03
    58   -8.752285372140e-17
    59    2.210412790903e-03
    60    1.330587373032e-16
    61   -2.271382244006e-03
    62   -8.706144328222e-17
    63   -1.006499497562e-02
    64   -2.499446113748e-02
    65    2.166978287172e-02
    66    2.646101921807e-01
    67   -1.359801325308e+00
    68   -2.362309205445e-01
    69   -9.212985802430e-16
    70   -9.427056457712e-02
    71   -4.081185432680e-01
    72   -2.130361774122e-15
    73   -2.935587667166e-01
    74    9.956480453917e-01
    75    4.793300289056e-15
    76    8.419851122758e-01
    77   -4.278973870590e-03
    78    4.785936603025e-03
    79   -2.830730860698e-17
    80    2.891585124599e-03
    81    5.772915913360e-17
    82    3.313441418363e-02
    83   -2.085997523204e-02
    84    2.586827524021e-16
    85   -6.009500068868e-02
    86   -3.363736524417e-16
    87   -1.785397965139e-03
    88   -2.517375989978e-03
    89    1.358623591783e-16
    90    2.210412790902e-03
    91   -2.643763114104e-16
    92    2.271382244006e-03
    93    9.860634492254e-17
[5D7F]

======= END OF MOLDEN-FORMATTED INPUT FILE =======


        *************************************************************
        *                                                           *
        *  Thank you very much for using Q-Chem.  Have a nice day.  *
        *                                                           *
        *************************************************************


