                  Welcome to Q-Chem
     A Quantum Leap Into The Future Of Chemistry


 Q-Chem 6.0 (devel), Q-Chem, Inc., Pleasanton, CA (2022)

 E. Epifanovsky,  A. T. B. Gilbert,  Xintian Feng,  Joonho Lee,  Yuezhi Mao,  
 N. Mardirossian,  P. Pokhilko,  A. White,  M. Wormit,  M. P. Coons,  
 A. L. Dempwolff,  Zhengting Gan,  D. Hait,  P. R. Horn,  L. D. Jacobson,  
 I. Kaliman,  J. Kussmann,  A. W. Lange,  Ka Un Lao,  D. S. Levine,  Jie Liu,  
 S. C. McKenzie,  A. F. Morrison,  K. Nanda,  F. Plasser,  D. R. Rehn,  
 M. L. Vidal,  Zhi-Qiang You,  Ying Zhu,  B. Alam,  B. Albrecht,  
 A. Aldossary,  E. Alguire,  J. H. Andersen,  V. Athavale,  D. Barton,  
 K. Begam,  A. Behn,  N. Bellonzi,  Y. A. Bernard,  E. J. Berquist,  
 H. Burton,  A. Carreras,  K. Carter-Fenk,  Romit Chakraborty,  
 Chandrima Chakravarty,  Junhan Chen,  A. D. Chien,  K. D. Closser,  
 V. Cofer-Shabica,  L. Cunha,  S. Dasgupta,  Jia Deng,  M. de Wergifosse,  
 M. Diedenhofen,  Hainam Do,  S. Ehlert,  Po-Tung Fang,  S. Fatehi,  
 Qingguo Feng,  T. Friedhoff,  B. Ganoe,  J. Gayvert,  Qinghui Ge,  
 G. Gidofalvi,  M. Goldey,  J. Gomes,  C. Gonzalez-Espinoza,  S. Gulania,  
 A. Gunina,  J. A. Gyamfi,  M. W. D. Hanson-Heine,  P. H. P. Harbach,  
 A. W. Hauser,  M. F. Herbst,  M. Hernandez Vera,  M. Hodecker,  
 Z. C. Holden,  S. Houck,  Xunkun Huang,  Kerwin Hui,  B. C. Huynh,  
 K. Ikeda,  M. Ivanov,  Hyunjun Ji,  Zuxin Jin,  Hanjie Jiang,  B. Kaduk,  
 S. Kaehler,  R. Kang,  K. Khistyaev,  Jaehoon Kim,  Yongbin Kim,  
 P. Klunzinger,  Z. Koczor-Benda,  Joong Hoon Koh,  D. Kosenkov,  
 Saikiran Kotaru,  L. Koulias,  T. Kowalczyk,  C. M. Krauter,  K. Kue,  
 A. Kunitsa,  T. Kus,  A. Landau,  K. V. Lawler,  D. Lefrancois,  S. Lehtola,  
 Rain Li,  Shaozhi Li,  Yi-Pei Li,  Jiashu Liang,  M. Liebenthal,  
 Hung-Hsuan Lin,  You-Sheng Lin,  Fenglai Liu,  Kuan-Yu Liu,  
 M. Loipersberger,  A. Luenser,  C. Malbon,  A. Manjanath,  P. Manohar,  
 E. Mansoor,  S. F. Manzer,  Shan-Ping Mao,  A. V. Marenich,  T. Markovich,  
 S. Mason,  F. Matz,  S. A. Maurer,  P. F. McLaughlin,  M. F. S. J. Menger,  
 J.-M. Mewes,  S. A. Mewes,  P. Morgante,  Mohammad Mostafanejad,  
 J. W. Mullinax,  K. J. Oosterbaan,  G. Paran,  V. Parravicini,  
 Alexander C. Paul,  Suranjan K. Paul,  F. Pavosevic,  Zheng Pei,  S. Prager,  
 E. I. Proynov,  E. Ramos,  B. Rana,  A. E. Rask,  A. Rettig,  R. M. Richard,  
 F. Rob,  E. Rossomme,  T. Scheele,  M. Scheurer,  M. Schneider,  
 P. E. Schneider,  N. Sergueev,  S. M. Sharada,  Hengyuan Shen,  
 W. Skomorowski,  D. W. Small,  C. J. Stein,  Yingli Su,  Yu-Chuan Su,  
 E. J. Sundstrom,  Zhen Tao,  J. Thirman,  Hung-Yi Tsai,  T. Tsuchimochi,  
 N. M. Tubman,  C. Utku,  S. P. Veccham,  O. Vydrov,  J. Wenzel,  
 Jonathan Wong,  J. Witte,  A. Yamada,  Chou-Hsun Yang,  Kun Yao,  
 S. Yeganeh,  S. R. Yost,  A. Zech,  F. Zeller,  Igor Ying Zhang,  
 Xing Zhang,  Yu Zhang,  D. Zuev,  A. Aspuru-Guzik,  A. T. Bell,  
 N. A. Besley,  K. B. Bravaya,  B. R. Brooks,  D. Casanova,  Jeng-Da Chai,  
 Hsing-Ta Chen,  S. Coriani,  C. J. Cramer,  A. E. DePrince, III,  
 R. A. DiStasio Jr.,  A. Dreuw,  B. D. Dunietz,  T. R. Furlani,  
 W. A. Goddard III,  S. Grimme,  S. Hammes-Schiffer,  T. Head-Gordon,  
 W. J. Hehre,  Chao-Ping Hsu,  T.-C. Jagau,  Yousung Jung,  A. Klamt,  
 Jing Kong,  D. S. Lambrecht,  Xiangyuan Li,  WanZhen Liang,  N. J. Mayhall,  
 C. W. McCurdy,  J. B. Neaton,  T. Neudecker,  C. Ochsenfeld,  
 J. A. Parkhill,  R. Peverati,  V. A. Rassolov,  Haisheng Ren,  Yihan Shao,  
 L. V. Slipchenko,  R. P. Steele,  J. E. Subotnik,  A. J. W. Thom,  
 A. Tkatchenko,  D. G. Truhlar,  T. Van Voorhis,  Fan Wang,  
 T. A. Wesolowski,  K. B. Whaley,  H. L. Woodcock III,  P. M. Zimmerman,  
 S. Faraji,  P. M. W. Gill,  M. Head-Gordon,  J. M. Herbert,  A. I. Krylov

 Contributors to earlier versions of Q-Chem not listed above: 
 R. D. Adamson,  B. Austin,  R. Baer,  J. Baker,  G. J. O. Beran,  
 K. Brandhorst,  S. T. Brown,  E. F. C. Byrd,  Arup K. Chakraborty,  
 G. K. L. Chan,  Chun-Min Chang,  Yunqing Chen,  C.-L. Cheng,  
 Siu Hung Chien,  D. M. Chipman,  D. L. Crittenden,  H. Dachsel,  
 R. J. Doerksen,  A. D. Dutoi,  R. G. Edgar,  J. Fosso-Tande,  
 L. Fusti-Molnar,  D. Ghosh,  A. Ghysels,  A. Golubeva-Zadorozhnaya,  
 J. Gonthier,  M. S. Gordon,  S. R. Gwaltney,  G. Hawkins,  J. E. Herr,  
 A. Heyden,  S. Hirata,  E. G. Hohenstein,  G. Kedziora,  F. J. Keil,  
 C. Kelley,  Jihan Kim,  R. A. King,  R. Z. Khaliullin,  P. P. Korambath,  
 W. Kurlancheek,  A. Laurent,  A. M. Lee,  M. S. Lee,  S. V. Levchenko,  
 Ching Yeh Lin,  D. Liotard,  E. Livshits,  R. C. Lochan,  I. Lotan,  
 L. A. Martinez-Martinez,  P. E. Maslen,  N. Nair,  D. P. O'Neill,  
 D. Neuhauser,  E. Neuscamman,  C. M. Oana,  R. Olivares-Amaya,  R. Olson,  
 T. M. Perrine,  B. Peters,  P. A. Pieniazek,  A. Prociuk,  Y. M. Rhee,  
 J. Ritchie,  M. A. Rohrdanz,  E. Rosta,  N. J. Russ,  H. F. Schaefer III,  
 M. W. Schmidt,  N. E. Schultz,  S. Sharma,  N. Shenvi,  C. D. Sherrill,  
 A. C. Simmonett,  A. Sodt,  T. Stein,  D. Stuck,  K. S. Thanthiriwatte,  
 V. Vanovschi,  L. Vogt,  Tao Wang,  A. Warshel,  M. A. Watson,  
 C. F. Williams,  Q. Wu,  X. Xu,  Jun Yang,  W. Zhang,  Yan Zhao

   Please cite Q-Chem as follows:
  "Software for the frontiers of quantum chemistry:
   An overview of developments in the Q-Chem 5 package"
   J. Chem. Phys. 155, 084801 (2021)
   https://doi.org/10.1063/5.0055522 (open access)

 Q-Chem 6.0.1 for Intel X86 EM64T Linux

 Parts of Q-Chem use Armadillo 9.900.5 (Nocturnal Misbehaviour).
 http://arma.sourceforge.net/

 Q-Chem begins on Thu Dec 22 20:44:53 2022  

 Host: atlas-185
0

     Scratch files written to ./qchem150019//
 Processing $rem in /scratch/abel/SOFTWARE/qchem/config/preferences:
 Processing $rem in /dipc/acebg/.qchemrc:

 Checking the input file for inconsistencies... 	...done.

--------------------------------------------------------------
User input:
--------------------------------------------------------------
$comment
 RAS-SF CALCULATION
$end

$molecule
 READ no2.molecule
$end

$rem
!**CALCULATION TYPE***     
JOBTYPE            sp    
EXCHANGE           HF
CORRELATION        RASCI    !RASCI=Casanova; RASCI2=Zimmerman
BASIS              6-31G*

!***SCF REFERENCE***
SKIP_SCFMAN        FALSE
UNRESTRICTED       FALSE
!SCF_GUESS          core
!SCF_GUESS_MIX      FALSE
!SCF_GUESS_ALWAYS   FALSE
MAX_SCF_CYCLES     500
SCF_CONVERGENCE    8
!SCF_ALGORITHM      DIIS !DIIS,DM,DIIS_DM,GDM,DIIS_GDM,GD

SYMMETRY           TRUE !use of symmetry for calculating integrals
SYM_IGNORE         FALSE !turn off using symmetry
SYM_TOL            5 !tolerance for determining point group

!THRESH             14
SCF_FINAL_PRINT     1 !0,1,2,3

!****RAS-SF****
RAS_ROOTS          10       !number of RAS-CI roots to be computed
SET_ITER           100     !number of iterations in RASCI
RAS_ELEC           11       !number of electrons in RAS2
!RAS_ELEC_ALPHA            !spin-α electrons in RAS2 
!RAS_ELEC_BETA             !spin-β electrons in RAS2

RAS_ACT            9       !number of orbitals in RAS2 
RAS_ACT_ORB   [7,8,9,10,11,12,13,14,15]  !user-selected RAS2 orbitals
RAS_OCC            6       !number of orbitals in RAS1
N_FROZEN_CORE      0     !Number of frozen core orbitals
N_FROZEN_VIRTUAL   25      !Number of frozen virtual orbitals
RAS_NATORB         TRUE    !computation of the natural orbital occupancies
!RAS_NATORB_STATE  0      !Saves NO of i RAS computed state in .fchk ﬁle

RAS_DO_HOLE        TRUE   !presence of hole excitations in RAS-CI wave function
RAS_DO_PART        TRUE   !presence of particle excitations
RAS_AMPL_PRINT     10     !threshold (×10 2 ) for the CI amplitudes

RAS_GUESS_CS       0      !number of closed shell guess conﬁgurations
RAS_SPIN_MULT      0      !spin multiplicity: 0=any, 2n+1=defined 
RAS_SRDFT          FALSE  !short-range density functional RAS-CI
RAS_NFRAG          0     !fragments of excitation analysis in RASCI

RAS_PRINT          2      !level of information
RAS_NATORB         TRUE   !computation of the natural orbital occupancies
!RAS_NATORB_STATE  0      !Saves NO of i RAS computed state in .fchk ﬁle
RAS_FOD            TRUE

!****RAS-SOC****
CALC_SOC           TRUE   !calculate SOC for EOM-CC, RAS-CI, ADC, TDDFT/TDA and TDDFT
!RAS_SOC_2E        TRUE   !two-electron mean-ﬁeld contribution, default=true
RAS_SOC_SYM_DENS   TRUE   !averaging of α and β densities

!****MEMORY****
MEM_TOTAL          60000 !Default 2000 MB
MEM_STATIC         16000  !Default 64 MB

!**Molecular Properties and Analysis **                                                                                          
GUI                2
STATE_ANALYSIS     TRUE
MOLDEN_FORMAT      TRUE
PRINT_ORBITALS     20
$end                                           

--------------------------------------------------------------
 ----------------------------------------------------------------
             Standard Nuclear Orientation (Angstroms)
    I     Atom           X                Y                Z
 ----------------------------------------------------------------
    1      N      -0.0000000000     0.0000000000     0.3240267236
    2      O      -1.1048267521    -0.0000000000    -0.1417616916
    3      O       1.1048267521     0.0000000000    -0.1417616916
 ----------------------------------------------------------------
 Molecular Point Group                 C2v   NOp =  4
 Largest Abelian Subgroup              C2v   NOp =  4
 Nuclear Repulsion Energy =          64.75805752 hartrees
 There are       12 alpha and       11 beta electrons
 Requested basis set is 6-31G(d)
 There are 12 shells and 45 basis functions

 Q-Chem warning in module libmdc/get_mega.C, line 167:

 Allowed MEM_STATIC has been capped at MEM_STATIC=8191.
 Reduce the value of MEM_STATIC to silence this warning.


 Total QAlloc Memory Limit  60000 MB
 Mega-Array Size      8007 MB
 MEM_STATIC part      8191 MB


                       Distance Matrix (Angstroms)
             N (  1)   O (  2)
   O (  2)  1.199000
   O (  3)  1.199000  2.209654
 
 A cutoff of  1.0D-12 yielded     77 shell pairs
 There are      1115 function pairs
 Smallest overlap matrix eigenvalue = 4.68E-03

 Scale SEOQF with 1.000000e+00/1.000000e+00/1.000000e+00

 Standard Electronic Orientation quadrupole field applied
 Nucleus-field energy     =     0.0000000058 hartrees
 Guess from superposition of atomic densities
 Warning:  Energy on first SCF cycle will be non-variational
 SAD guess density has 23.000000 electrons

 -----------------------------------------------------------------------
  General SCF calculation program by
  Eric Jon Sundstrom, Paul Horn, Yuezhi Mao, Dmitri Zuev, Alec White,
  David Stuck, Shaama M.S., Shane Yost, Joonho Lee, David Small,
  Daniel Levine, Susi Lehtola, Hugh Burton, Evgeny Epifanovsky,
  Bang C. Huynh
 -----------------------------------------------------------------------
 Hartree-Fock
 Orthonormalizing orbitals
 A restricted open-shell SCF calculation will be
 performed using GDM
 SCF converges when RMS gradient is below 1.0e-08
 ---------------------------------------
  Cycle       Energy        RMS Gradient
 ---------------------------------------
    1    -203.1810133953      6.51e-01   Descent step
    2    -203.6232969617      3.26e-01   Descent step
    3    -203.8779285203      1.98e-01   Descent step
    4    -203.9931539261      6.24e-02   Normal BFGS step
    5    -204.0172779734      1.28e-02   Normal BFGS step
    6    -204.0179502753      7.89e-03   Normal BFGS step
    7    -204.0180505853      3.43e-03   Normal BFGS step
    8    -204.0180678669      1.05e-03   Normal BFGS step
    9    -204.0180709911      5.85e-04   Normal BFGS step
   10    -204.0180714931      2.40e-04   Normal BFGS step
   11    -204.0180716024      4.23e-05   Normal BFGS step
   12    -204.0180716132      1.54e-05   Normal BFGS step
   13    -204.0180716138      2.67e-06   Normal BFGS step
   14    -204.0180716138      4.12e-07   Normal BFGS step
   15    -204.0180716138      8.25e-08   Normal BFGS step
   16    -204.0180716138      2.56e-08   Normal BFGS step
   17    -204.0180716138      4.84e-09  Convergence criterion met
The disked orbital energies are calculated using alpha and beta Focks
 ---------------------------------------
 Alpha HF Exchange    Energy = -11.78441621158763
 Beta HF Exchange     Energy = -11.06782048285556
 Nuclear Attraction   Energy =   0.00000000000000
 One-Electron (alpha) Energy = -209.34848224033632
 One-Electron (beta)  Energy = -198.33453827826355
 Total Coulomb        Energy = 161.75912807233269
 Final Alpha MO Eigenvalues
            1           2           3           4           5           6
    1 -20.6966825 -20.6966423 -15.8956669  -1.6741175  -1.4951075  -0.9457116
            7           8           9          10          11          12
    1  -0.7938884  -0.8281041  -0.7610551  -0.5899161  -0.5284098  -0.5035320
           13          14          15          16          17          18
    1   0.0774369   0.4372027   0.5585960   0.7530564   0.8029780   0.8339505
           19          20          21          22          23          24
    1   0.8339271   1.0191846   1.0696057   1.1438560   1.1586868   1.2166778
           25          26          27          28          29          30
    1   1.2115549   1.5020061   1.6362314   1.6477129   1.6492578   1.7196238
           31          32          33          34          35          36
    1   1.9927356   2.0208733   2.1024668   2.1368834   2.1332765   2.5086138
           37          38          39          40          41          42
    1   2.6462932   2.9934889   3.0299865   3.0491118   3.1480275   3.2131477
           43          44          45
    1   3.8121016   4.0358630   4.1066213
 Final Beta MO Eigenvalues
            1           2           3           4           5           6
    1 -20.6867352 -20.6866649 -15.8748954  -1.6357780  -1.4578360  -0.8832025
            7           8           9          10          11          12
    1  -0.7497781  -0.7191363  -0.7450755  -0.5030591  -0.5182429   0.0398639
           13          14          15          16          17          18
    1   0.1046932   0.4549511   0.6046787   0.7955307   0.8392146   0.8441290
           19          20          21          22          23          24
    1   0.8527479   1.0286340   1.1006940   1.1792909   1.1636338   1.2234337
           25          26          27          28          29          30
    1   1.2350014   1.5227922   1.6454055   1.6656140   1.6812251   1.7582816
           31          32          33          34          35          36
    1   2.0156899   2.0349701   2.1377032   2.1501386   2.1671374   2.5321981
           37          38          39          40          41          42
    1   2.6583492   3.0346979   3.0551485   3.0633659   3.1606908   3.2316555
           43          44          45
    1   3.8352143   4.0453399   4.1285647
 SCF time:   CPU 0.80s  wall 2.00s 
<S^2> =          0.750000000
 SCF   energy in the final basis set =     -204.0180716138
 Total energy in the final basis set =     -204.0180716138
Setting RAS_srDFT_COR/EXC
  
     ##========================================##
     ||                                        ||
     ||              R A S M A N 2             ||
     ||________________________________________||
     ||                                        ||
     ||  Author:                               ||
     ||                                        ||
     ||        David Casanova (2010)           ||
     ||                                        ||
     ##========================================##
  
  ***************************************************
  *  RAS-CI Dimensions:                             *
  *                                                 *
  *  Active Elec.:  11 ( 6, 5)   Active Orb.:   9   *
  *  Doubly Occ. :   6           Doubly Vir.:  30   *
  *  Frozen Occ. :   0           Frozen Vir.:  25   *
  *                                                 *
  *  Total CI configurations:    212436             * 
  *    Active configurations:     10584             * 
  *      Hole configurations:     69552             * 
  *  Particle configurations:    132300             * 
  *                                                 *
  *   Requested states:       10                    *
  *  Spin multiplicity: Any multiplicity            *
  *                                                 *
  ***************************************************
-----------------------------------------
    Memory requirements of RASCI

 Each CI-vector requires      1.62 MiB 
 Max. subspace vectors           1000      

 Reduced Lists                0.00 MiB 
 Excitation Lists             0.01 MiB 
 Excitation Lists Sign        0.01 MiB 
 CI-space (Max)            1644.60 MiB 
 Integrals                    2.16 MiB 
 Memory required (Max)     1644.62 MiB 
 Memory available          7811.55 MiB 

    Disk requirements of RASCI

 Fock matrix                  0.03 MiB 
 2-electron integrals         0.41 MiB 
 CI-space                  3241.52 MiB 
 Disk required             3241.96 MiB 
-----------------------------------------
  
RAS1 HF-like energy:           -172.8178313406
 Computing integrals
 Computing J and K matrices
 Computing addressing
 Making amplitude guesses
 
Direct CI diagonalization
 ---------------------------------------------------
 Iter    Rts Conv    Rts Left    Ttl Dev     Max Dev
 ---------------------------------------------------
   1         0          10      0.011389    0.001456
   2         0          10      0.006619    0.000823
   3         0          10      0.006530    0.000844
   4         0          10      0.003747    0.000464
   5         0          10      0.003921    0.000535
   6         0          10      0.002673    0.000445
   7         0          10      0.002705    0.000489
   8         0          10      0.001888    0.000389
   9         0          10      0.002116    0.000521
  10         0          10      0.002342    0.001233
  11         0          10      0.002581    0.001211
  12         0          10      0.002221    0.000760
  13         0          10      0.001436    0.000585
  14         0          10      0.001227    0.000501
  15         0          10      0.000794    0.000293
  16         0          10      0.001685    0.000995
  17         0          10      0.001153    0.000710
  18         0          10      0.001214    0.000787
  19         0          10      0.000714    0.000445
  20         0          10      0.000816    0.000536
  21         0          10      0.000624    0.000433
  22         0          10      0.000632    0.000436
  23         1           9      0.000463    0.000330
  24         1           9      0.000386    0.000262
  25         1           9      0.000312    0.000220
  26         1           9      0.000246    0.000173
  27         3           7      0.000280    0.000216
  28         3           7      0.000250    0.000201
  29         4           6      0.000354    0.000310
  30         4           6      0.000375    0.000342
  31         4           6      0.001202    0.000685
  32         4           6      0.000791    0.000388
  33         4           6      0.000606    0.000330
  34         4           6      0.000441    0.000251
  35         4           6      0.000348    0.000196
  36         5           5      0.000264    0.000152
  37         6           4      0.000199    0.000112
  38         6           4      0.000168    0.000096
  39         7           3      0.000105    0.000057
  40         7           3      0.000089    0.000049
  41         7           3      0.000060    0.000032
  42         7           3      0.000047    0.000024
  43         8           2      0.000043    0.000022
  44         8           2      0.000032    0.000016
  45         8           2      0.000033    0.000016
  46         9           1      0.000024    0.000011
  47         9           1      0.000023    0.000010
  48         9           1      0.000016    0.000006
  49         9           1      0.000015    0.000005
  50         9           1      0.000011    0.000003
  51         9           1      0.000010    0.000003
  52         9           1      0.000008    0.000002
  53         9           1      0.000007    0.000001
  54         9           1      0.000007    0.000001
  55        10           0      0.000006    0.000001    Roots Converged
 ---------------------------------------------------
   
**************************************************
 RAS-CI total energy for state   1:   -204.168457033311
  Excitation energy (eV) =  0.000000000000
  State symmetry: A1    (C2v      )
  <S^2>      :  0.7500
  Dipole Moment:    0.0000 X    -0.0000 Y    -0.1383 Z
 NATURAL OCCUPATION NUMBERS (higher than 1.0E-05)
            1           2           3           4           5           6
    1   1.9999995   1.9999993   1.9999977   1.9988661   1.9973433   1.9944562
            7           8           9          10          11          12
    1   1.9806396   1.9779198   1.9629069   1.9599731   1.9294329   1.0371845
           13          14          15          16          17          18
    1   0.1073890   0.0289173   0.0138322   0.0035564   0.0031483   0.0024691
           19          20
    1   0.0015004   0.0004683
Natural Orbitals stored in FCHK

  Amplitudes : 
  
 | HOLE  | ALPHA     | BETA      | PART  |    AMPLITUDE 
--------------------------------------------------
 |       | 111111000 | 111110000 |       |     9.4340463216293E-01
 |       | 111101100 | 111100100 |       |     1.2055877897225E-01
 |       | 111101100 | 111011000 |       |    -1.0163234584378E-01
--------------------------------------------------
*** Contributions RASCI wfn    Active:  97.21
                                 Hole:   1.17
                                 Part:   1.62

      Mulliken population analysis 
 ---------------------------------------------------
   Atom    Charge (a.u.)   Spin (a.u.)  
 ---------------------------------------------------
   1  N    0.533008        0.480376 
   2  O   -0.266504        0.259812 
   3  O   -0.266504        0.259812 
 ---------------------------------------------------
   Sum:   -0.000000        1.000000 
 ---------------------------------------------------
 
  
 NATURAL OCCUPATION NUMBERS (higher than 1.0E-05)
            1           2           3           4           5           6
    1   1.9999995   1.9999993   1.9999977   1.9988661   1.9973433   1.9944562
            7           8           9          10          11          12
    1   1.9806396   1.9779198   1.9629069   1.9599731   1.9294329   1.0371845
           13          14          15          16          17          18
    1   0.1073890   0.0289173   0.0138322   0.0035564   0.0031483   0.0024691
           19          20
    1   0.0015004   0.0004683
  
*** Unpaired Electrons
 Yamaguchi Nd:         1.70
 Head-Gordon Nu:       1.32
 Head-Gordon Nu_nl:    1.08
  
**************************************************
 RAS-CI total energy for state   2:   -204.055093405997
  Excitation energy (eV) =  3.084781247981
  State symmetry: B2    (C2v      )
  <S^2>      :  0.7500
  Dipole Moment:    0.0000 X    -0.0000 Y    -0.2121 Z
  Trans. Moment:    0.0000 X     0.0899 Y     0.0000 Z
  Strength   :  0.000610
  Natural transition orbitals ( 1 -> 2 ):
   e-/hole pair  1 alpha:  ampl =  0.921021 ( 84.8%)   [9 : 10]
   e-/hole pair  2 alpha:  ampl =  0.053011 (  0.3%)   [8 : 11]
   e-/hole pair  1 beta :  ampl =  0.055087 (  0.3%)   [9 : 10]
   e-/hole pair  2 beta :  ampl =  0.040891 (  0.2%)   [8 : 11]
   Sum of square amplitudes: 0.86

 NATURAL OCCUPATION NUMBERS (higher than 1.0E-05)
            1           2           3           4           5           6
    1   1.9999995   1.9999993   1.9999975   1.9986868   1.9973369   1.9931892
            7           8           9          10          11          12
    1   1.9826955   1.9786011   1.9692248   1.9490506   1.8857144   1.0359341
           13          14          15          16          17          18
    1   0.1630689   0.0249542   0.0102225   0.0036992   0.0033236   0.0024653
           19          20
    1   0.0016306   0.0002057
Natural Orbitals stored in FCHK

  Amplitudes : 
  
 | HOLE  | ALPHA     | BETA      | PART  |    AMPLITUDE 
--------------------------------------------------
 |       | 111110100 | 111110000 |       |     9.1847442298642E-01
 |       | 111011100 | 111100100 |       |     1.0257255537828E-01
 |       | 111011100 | 111011000 |       |    -1.6084023476445E-01
 |       | 101111100 | 111110000 |       |    -1.4384408514283E-01
--------------------------------------------------
*** Contributions RASCI wfn    Active:  96.11
                                 Hole:   2.03
                                 Part:   1.86

      Mulliken population analysis 
 ---------------------------------------------------
   Atom    Charge (a.u.)   Spin (a.u.)  
 ---------------------------------------------------
   1  N    0.537359        0.673114 
   2  O   -0.268680        0.163443 
   3  O   -0.268680        0.163443 
 ---------------------------------------------------
   Sum:   -0.000000        1.000000 
 ---------------------------------------------------
 
  
 NATURAL OCCUPATION NUMBERS (higher than 1.0E-05)
            1           2           3           4           5           6
    1   1.9999995   1.9999993   1.9999975   1.9986868   1.9973369   1.9931892
            7           8           9          10          11          12
    1   1.9826955   1.9786011   1.9692248   1.9490506   1.8857144   1.0359341
           13          14          15          16          17          18
    1   0.1630689   0.0249542   0.0102225   0.0036992   0.0033236   0.0024653
           19          20
    1   0.0016306   0.0002057
  
*** Unpaired Electrons
 Yamaguchi Nd:         1.86
 Head-Gordon Nu:       1.42
 Head-Gordon Nu_nl:    1.15
  
**************************************************
 RAS-CI total energy for state   3:   -204.031357080592
  Excitation energy (eV) =  3.730679524534
  State symmetry: B1    (C2v      )
  <S^2>      :  0.7500
  Dipole Moment:   -0.0000 X    -0.0000 Y     0.2496 Z
  Trans. Moment:    0.2012 X     0.0000 Y     0.0000 Z
  Strength   :  0.003700
  Natural transition orbitals ( 1 -> 3 ):
   e-/hole pair  1 alpha:  ampl =  0.245615 (  6.0%)   [9 : 10]
   e-/hole pair  2 alpha:  ampl =  0.074528 (  0.6%)   [8 : 11]
   e-/hole pair  1 beta :  ampl =  0.877161 ( 76.9%)   [9 : 10]
   e-/hole pair  2 beta :  ampl =  0.146505 (  2.1%)   [8 : 11]
   Sum of square amplitudes: 0.87

 NATURAL OCCUPATION NUMBERS (higher than 1.0E-05)
            1           2           3           4           5           6
    1   1.9999996   1.9999993   1.9999984   1.9989299   1.9974871   1.9961334
            7           8           9          10          11          12
    1   1.9842502   1.9752854   1.9635772   1.8512085   1.8308945   1.1465160
           13          14          15          16          17          18
    1   0.2026067   0.0273902   0.0161983   0.0032011   0.0023736   0.0022245
           19          20
    1   0.0011234   0.0006026
Natural Orbitals stored in FCHK

  Amplitudes : 
  
 | HOLE  | ALPHA     | BETA      | PART  |    AMPLITUDE 
--------------------------------------------------
 |       | 111111000 | 111100100 |       |     1.5399071892561E-01
 |       | 111111000 | 111011000 |       |     8.8777955482538E-01
 |       | 111111000 | 101101100 |       |     1.0286298247640E-01
 |       | 111101100 | 111110000 |       |    -2.5222450507818E-01
 |       | 111101100 | 101111000 |       |     1.0257869771789E-01
--------------------------------------------------
*** Contributions RASCI wfn    Active:  96.82
                                 Hole:   1.17
                                 Part:   2.01

      Mulliken population analysis 
 ---------------------------------------------------
   Atom    Charge (a.u.)   Spin (a.u.)  
 ---------------------------------------------------
   1  N    0.422461       -0.013470 
   2  O   -0.211230        0.506735 
   3  O   -0.211230        0.506735 
 ---------------------------------------------------
   Sum:   -0.000000        1.000000 
 ---------------------------------------------------
 
  
 NATURAL OCCUPATION NUMBERS (higher than 1.0E-05)
            1           2           3           4           5           6
    1   1.9999996   1.9999993   1.9999984   1.9989299   1.9974871   1.9961334
            7           8           9          10          11          12
    1   1.9842502   1.9752854   1.9635772   1.8512085   1.8308945   1.1465160
           13          14          15          16          17          18
    1   0.2026067   0.0273902   0.0161983   0.0032011   0.0023736   0.0022245
           19          20
    1   0.0011234   0.0006026
  
*** Unpaired Electrons
 Yamaguchi Nd:         2.20
 Head-Gordon Nu:       1.51
 Head-Gordon Nu_nl:    1.27
  
**************************************************
 RAS-CI total energy for state   4:   -204.024450990583
  Excitation energy (eV) =  3.918603794944
  State symmetry: A2    (C2v      )
  <S^2>      :  0.7500
  Dipole Moment:   -0.0000 X     0.0000 Y     0.3225 Z
  Trans. Moment:    0.0000 X     0.0000 Y     0.0000 Z
  Strength   :  0.000000
  Natural transition orbitals ( 1 -> 4 ):
   e-/hole pair  1 alpha:  ampl =  0.055178 (  0.3%)   [9 : 10]
   e-/hole pair  2 alpha:  ampl =  0.018905 (  0.0%)   [8 : 11]
   e-/hole pair  1 beta :  ampl =  0.918355 ( 84.3%)   [9 : 10]
   e-/hole pair  2 beta :  ampl =  0.108476 (  1.2%)   [8 : 11]
   Sum of square amplitudes: 0.86

 NATURAL OCCUPATION NUMBERS (higher than 1.0E-05)
            1           2           3           4           5           6
    1   1.9999997   1.9999994   1.9999986   1.9990714   1.9977380   1.9976882
            7           8           9          10          11          12
    1   1.9927531   1.9905906   1.9797617   1.9605871   1.9101017   1.0144635
           13          14          15          16          17          18
    1   0.1089556   0.0251943   0.0144771   0.0028549   0.0024929   0.0019834
           19          20
    1   0.0007252   0.0005634
Natural Orbitals stored in FCHK

  Amplitudes : 
  
 | HOLE  | ALPHA     | BETA      | PART  |    AMPLITUDE 
--------------------------------------------------
 |       | 111111000 | 111101000 |       |     9.3647676492731E-01
 |       | 111101100 | 110111000 |       |     1.6047707834285E-01
 |       | 110111100 | 110101100 |       |     1.0950522977845E-01
--------------------------------------------------
*** Contributions RASCI wfn    Active:  97.11
                                 Hole:   1.03
                                 Part:   1.85

      Mulliken population analysis 
 ---------------------------------------------------
   Atom    Charge (a.u.)   Spin (a.u.)  
 ---------------------------------------------------
   1  N    0.408610       -0.214708 
   2  O   -0.204305        0.607354 
   3  O   -0.204305        0.607354 
 ---------------------------------------------------
   Sum:   -0.000000        1.000000 
 ---------------------------------------------------
 
  
 NATURAL OCCUPATION NUMBERS (higher than 1.0E-05)
            1           2           3           4           5           6
    1   1.9999997   1.9999994   1.9999986   1.9990714   1.9977380   1.9976882
            7           8           9          10          11          12
    1   1.9927531   1.9905906   1.9797617   1.9605871   1.9101017   1.0144635
           13          14          15          16          17          18
    1   0.1089556   0.0251943   0.0144771   0.0028549   0.0024929   0.0019834
           19          20
    1   0.0007252   0.0005634
  
*** Unpaired Electrons
 Yamaguchi Nd:         1.63
 Head-Gordon Nu:       1.31
 Head-Gordon Nu_nl:    1.08
  
**************************************************
 RAS-CI total energy for state   5:   -203.986953045258
  Excitation energy (eV) =  4.938974802105
  State symmetry: B1    (C2v      )
  <S^2>      :  3.7500
  Dipole Moment:   -0.0000 X    -0.0000 Y    -0.0402 Z
  Trans. Moment:    0.0000 X     0.0000 Y    -0.0000 Z
  Strength   :  0.000000
  Natural transition orbitals ( 1 -> 5 ):
   e-/hole pair  1 alpha:  ampl =  0.536788 ( 28.8%)   [9 : 10]
   e-/hole pair  2 alpha:  ampl =  0.077038 (  0.6%)   [8 : 11]
   e-/hole pair  1 beta :  ampl =  0.536790 ( 28.8%)   [9 : 10]
   e-/hole pair  2 beta :  ampl =  0.077039 (  0.6%)   [8 : 11]
   Sum of square amplitudes: 0.59

 NATURAL OCCUPATION NUMBERS (higher than 1.0E-05)
            1           2           3           4           5           6
    1   1.9999995   1.9999993   1.9999983   1.9987200   1.9974832   1.9955509
            7           8           9          10          11          12
    1   1.9849930   1.9827678   1.9663996   1.9507254   1.0347162   1.0293851
           13          14          15          16          17          18
    1   1.0082242   0.0281005   0.0118623   0.0035106   0.0025749   0.0025267
           19          20
    1   0.0020378   0.0004246
Natural Orbitals stored in FCHK

  Amplitudes : 
  
 | HOLE  | ALPHA     | BETA      | PART  |    AMPLITUDE 
--------------------------------------------------
 |       | 111111000 | 111100100 |       |     5.5093985772311E-01
 |       | 111110100 | 111101000 |       |    -5.5094747401145E-01
 |       | 111101100 | 111110000 |       |     5.5093989614705E-01
--------------------------------------------------
*** Contributions RASCI wfn    Active:  96.59
                                 Hole:   1.53
                                 Part:   1.88

      Mulliken population analysis 
 ---------------------------------------------------
   Atom    Charge (a.u.)   Spin (a.u.)  
 ---------------------------------------------------
   1  N    0.428505        0.367128 
   2  O   -0.214253        0.316436 
   3  O   -0.214253        0.316436 
 ---------------------------------------------------
   Sum:   -0.000000        1.000000 
 ---------------------------------------------------
 
  
 NATURAL OCCUPATION NUMBERS (higher than 1.0E-05)
            1           2           3           4           5           6
    1   1.9999995   1.9999993   1.9999983   1.9987200   1.9974832   1.9955509
            7           8           9          10          11          12
    1   1.9849930   1.9827678   1.9663996   1.9507254   1.0347162   1.0293851
           13          14          15          16          17          18
    1   1.0082242   0.0281005   0.0118623   0.0035106   0.0025749   0.0025267
           19          20
    1   0.0020378   0.0004246
  
*** Unpaired Electrons
 Yamaguchi Nd:         3.34
 Head-Gordon Nu:       3.10
 Head-Gordon Nu_nl:    3.02
  
**************************************************
 RAS-CI total energy for state   6:   -203.953686628088
  Excitation energy (eV) =  5.844200069709
  State symmetry: A2    (C2v      )
  <S^2>      :  0.7500
  Dipole Moment:    0.0000 X    -0.0000 Y    -0.0456 Z
  Trans. Moment:   -0.0000 X     0.0000 Y    -0.0000 Z
  Strength   :  0.000000
  Natural transition orbitals ( 1 -> 6 ):
   e-/hole pair  1 alpha:  ampl =  0.586199 ( 34.4%)   [9 : 10]
   e-/hole pair  2 alpha:  ampl =  0.049899 (  0.2%)   [8 : 11]
   e-/hole pair  1 beta :  ampl =  0.680944 ( 46.4%)   [9 : 10]
   e-/hole pair  2 beta :  ampl =  0.065892 (  0.4%)   [8 : 11]
   Sum of square amplitudes: 0.82

 NATURAL OCCUPATION NUMBERS (higher than 1.0E-05)
            1           2           3           4           5           6
    1   1.9999996   1.9999994   1.9999977   1.9987573   1.9976422   1.9937728
            7           8           9          10          11          12
    1   1.9850234   1.9795582   1.9546272   1.9289764   1.0525652   1.0490855
           13          14          15          16          17          18
    1   1.0116677   0.0268281   0.0110043   0.0030506   0.0025989   0.0022857
           19          20
    1   0.0020480   0.0005118
Natural Orbitals stored in FCHK

  Amplitudes : 
  
 | HOLE  | ALPHA     | BETA      | PART  |    AMPLITUDE 
--------------------------------------------------
 |       | 111111000 | 111010100 |       |     6.9867819575444E-01
 |       | 111110100 | 111100100 |       |    -1.3339005793955E-01
 |       | 111101100 | 101110100 |       |     1.0488658594034E-01
 |       | 111011100 | 111110000 |       |    -6.0470871685152E-01
 |       | 101111100 | 111011000 |       |    -1.1344645528193E-01
--------------------------------------------------
*** Contributions RASCI wfn    Active:  96.60
                                 Hole:   1.48
                                 Part:   1.92

      Mulliken population analysis 
 ---------------------------------------------------
   Atom    Charge (a.u.)   Spin (a.u.)  
 ---------------------------------------------------
   1  N    0.479783        0.389814 
   2  O   -0.239891        0.305093 
   3  O   -0.239891        0.305093 
 ---------------------------------------------------
   Sum:   -0.000000        1.000000 
 ---------------------------------------------------
 
  
 NATURAL OCCUPATION NUMBERS (higher than 1.0E-05)
            1           2           3           4           5           6
    1   1.9999996   1.9999994   1.9999977   1.9987573   1.9976422   1.9937728
            7           8           9          10          11          12
    1   1.9850234   1.9795582   1.9546272   1.9289764   1.0525652   1.0490855
           13          14          15          16          17          18
    1   1.0116677   0.0268281   0.0110043   0.0030506   0.0025989   0.0022857
           19          20
    1   0.0020480   0.0005118
  
*** Unpaired Electrons
 Yamaguchi Nd:         3.41
 Head-Gordon Nu:       3.10
 Head-Gordon Nu_nl:    3.02
  
**************************************************
 RAS-CI total energy for state   7:   -203.938092458598
  Excitation energy (eV) =  6.268539011227
  State symmetry: B1    (C2v      )
  <S^2>      :  0.7500
  Dipole Moment:   -0.0000 X    -0.0000 Y     0.0198 Z
  Trans. Moment:    0.2104 X     0.0000 Y     0.0000 Z
  Strength   :  0.006798
  Natural transition orbitals ( 1 -> 7 ):
   e-/hole pair  1 alpha:  ampl =  0.433189 ( 18.8%)   [9 : 10]
   e-/hole pair  2 alpha:  ampl =  0.038682 (  0.1%)   [8 : 11]
   e-/hole pair  1 beta :  ampl =  0.308540 (  9.5%)   [9 : 10]
   e-/hole pair  2 beta :  ampl =  0.158625 (  2.5%)   [8 : 11]
   Sum of square amplitudes: 0.32

 NATURAL OCCUPATION NUMBERS (higher than 1.0E-05)
            1           2           3           4           5           6
    1   1.9999996   1.9999994   1.9999982   1.9988280   1.9976943   1.9946441
            7           8           9          10          11          12
    1   1.9779409   1.9762720   1.9349358   1.9342545   1.0756038   1.0723054
           13          14          15          16          17          18
    1   0.9897711   0.0272449   0.0103591   0.0030267   0.0024306   0.0023555
           19          20
    1   0.0018104   0.0005258
Natural Orbitals stored in FCHK

  Amplitudes : 
  
 | HOLE  | ALPHA     | BETA      | PART  |    AMPLITUDE 
--------------------------------------------------
 |       | 111111000 | 111100100 |       |     3.0898551404411E-01
 |       | 111111000 | 111011000 |       |     1.4195000828357E-01
 |       | 111110100 | 111101000 |       |     7.5696499878657E-01
 |       | 111101100 | 111110000 |       |     4.4795637422732E-01
 |       | 111011100 | 110111000 |       |     1.3557414408221E-01
--------------------------------------------------
*** Contributions RASCI wfn    Active:  96.81
                                 Hole:   1.43
                                 Part:   1.76

      Mulliken population analysis 
 ---------------------------------------------------
   Atom    Charge (a.u.)   Spin (a.u.)  
 ---------------------------------------------------
   1  N    0.429933        0.208824 
   2  O   -0.214966        0.395588 
   3  O   -0.214966        0.395588 
 ---------------------------------------------------
   Sum:   -0.000000        1.000000 
 ---------------------------------------------------
 
  
 NATURAL OCCUPATION NUMBERS (higher than 1.0E-05)
            1           2           3           4           5           6
    1   1.9999996   1.9999994   1.9999982   1.9988280   1.9976943   1.9946441
            7           8           9          10          11          12
    1   1.9779409   1.9762720   1.9349358   1.9342545   1.0756038   1.0723054
           13          14          15          16          17          18
    1   0.9897711   0.0272449   0.0103591   0.0030267   0.0024306   0.0023555
           19          20
    1   0.0018104   0.0005258
  
*** Unpaired Electrons
 Yamaguchi Nd:         3.44
 Head-Gordon Nu:       3.08
 Head-Gordon Nu_nl:    3.02
  
**************************************************
 RAS-CI total energy for state   8:   -203.900313935966
  Excitation energy (eV) =  7.296544915365
  State symmetry: A2    (C2v      )
  <S^2>      :  0.7500
  Dipole Moment:   -0.0000 X    -0.0000 Y    -0.1341 Z
  Trans. Moment:    0.0000 X     0.0000 Y     0.0000 Z
  Strength   :  0.000000
  Natural transition orbitals ( 1 -> 8 ):
   e-/hole pair  1 alpha:  ampl =  0.386911 ( 15.0%)   [9 : 10]
   e-/hole pair  2 alpha:  ampl =  0.044647 (  0.2%)   [8 : 11]
   e-/hole pair  1 beta :  ampl =  0.322182 ( 10.4%)   [9 : 10]
   e-/hole pair  2 beta :  ampl =  0.081581 (  0.7%)   [8 : 11]
   Sum of square amplitudes: 0.26

 NATURAL OCCUPATION NUMBERS (higher than 1.0E-05)
            1           2           3           4           5           6
    1   1.9999996   1.9999993   1.9999981   1.9982896   1.9976696   1.9924659
            7           8           9          10          11          12
    1   1.9798709   1.9708260   1.9102809   1.8950170   1.1155191   1.1003751
           13          14          15          16          17          18
    1   0.9872004   0.0317056   0.0103801   0.0034127   0.0026561   0.0022007
           19          20
    1   0.0014885   0.0006445
Natural Orbitals stored in FCHK

  Amplitudes : 
  
 | HOLE  | ALPHA     | BETA      | PART  |    AMPLITUDE 
--------------------------------------------------
 |       | 111111000 | 111010100 |       |    -3.2456067817258E-01
 |       | 111110100 | 111100100 |       |    -2.6975632741950E-01
 |       | 111110100 | 111011000 |       |    -7.1502388695732E-01
 |       | 111011100 | 111110000 |       |    -3.9046320878730E-01
 |       | 111011100 | 101111000 |       |    -1.8108371862057E-01
 |       | 101111100 | 111011000 |       |    -1.1690725257510E-01
--------------------------------------------------
*** Contributions RASCI wfn    Active:  96.59
                                 Hole:   1.56
                                 Part:   1.85

      Mulliken population analysis 
 ---------------------------------------------------
   Atom    Charge (a.u.)   Spin (a.u.)  
 ---------------------------------------------------
   1  N    0.459287        0.156923 
   2  O   -0.229644        0.421538 
   3  O   -0.229644        0.421538 
 ---------------------------------------------------
   Sum:   -0.000000        1.000000 
 ---------------------------------------------------
 
  
 NATURAL OCCUPATION NUMBERS (higher than 1.0E-05)
            1           2           3           4           5           6
    1   1.9999996   1.9999993   1.9999981   1.9982896   1.9976696   1.9924659
            7           8           9          10          11          12
    1   1.9798709   1.9708260   1.9102809   1.8950170   1.1155191   1.1003751
           13          14          15          16          17          18
    1   0.9872004   0.0317056   0.0103801   0.0034127   0.0026561   0.0022007
           19          20
    1   0.0014885   0.0006445
  
*** Unpaired Electrons
 Yamaguchi Nd:         3.57
 Head-Gordon Nu:       3.08
 Head-Gordon Nu_nl:    3.03
  
**************************************************
 RAS-CI total energy for state   9:   -203.865125398445
  Excitation energy (eV) =  8.254073738844
  State symmetry: A1    (C2v      )
  <S^2>      :  0.7500
  Dipole Moment:   -0.0000 X    -0.0000 Y    -0.0479 Z
  Trans. Moment:   -0.0000 X    -0.0000 Y    -0.3567 Z
  Strength   :  0.025733
  Natural transition orbitals ( 1 -> 9 ):
   e-/hole pair  1 alpha:  ampl =  0.235182 (  5.5%)   [9 : 10]
   e-/hole pair  2 alpha:  ampl =  0.067297 (  0.5%)   [8 : 11]
   e-/hole pair  1 beta :  ampl =  0.829025 ( 68.7%)   [9 : 10]
   e-/hole pair  2 beta :  ampl =  0.106637 (  1.1%)   [8 : 11]
   Sum of square amplitudes: 0.77

 NATURAL OCCUPATION NUMBERS (higher than 1.0E-05)
            1           2           3           4           5           6
    1   1.9999995   1.9999994   1.9999982   1.9991600   1.9973780   1.9953398
            7           8           9          10          11          12
    1   1.9831574   1.8723906   1.8496806   1.8435106   1.7867879   1.2574376
           13          14          15          16          17          18
    1   0.3517176   0.0335224   0.0193582   0.0030050   0.0029728   0.0023714
           19          20
    1   0.0015884   0.0006243
Natural Orbitals stored in FCHK

  Amplitudes : 
  
 | HOLE  | ALPHA     | BETA      | PART  |    AMPLITUDE 
--------------------------------------------------
 |       | 111111000 | 111001100 |       |     2.3875456009688E-01
 |       | 111111000 | 110110100 |       |     1.0854976158890E-01
 |       | 111111000 | 101111000 |       |     8.2296446835751E-01
 |       | 111110100 | 110111000 |       |    -1.3083392656612E-01
 |       | 111101100 | 111100100 |       |     1.7271358035551E-01
 |       | 111101100 | 111011000 |       |     2.0763927847571E-01
 |       | 110111100 | 111110000 |       |    -2.3938368815504E-01
--------------------------------------------------
*** Contributions RASCI wfn    Active:  97.02
                                 Hole:   1.23
                                 Part:   1.75

      Mulliken population analysis 
 ---------------------------------------------------
   Atom    Charge (a.u.)   Spin (a.u.)  
 ---------------------------------------------------
   1  N    0.482146        0.465402 
   2  O   -0.241073        0.267299 
   3  O   -0.241073        0.267299 
 ---------------------------------------------------
   Sum:   -0.000000        1.000000 
 ---------------------------------------------------
 
  
 NATURAL OCCUPATION NUMBERS (higher than 1.0E-05)
            1           2           3           4           5           6
    1   1.9999995   1.9999994   1.9999982   1.9991600   1.9973780   1.9953398
            7           8           9          10          11          12
    1   1.9831574   1.8723906   1.8496806   1.8435106   1.7867879   1.2574376
           13          14          15          16          17          18
    1   0.3517176   0.0335224   0.0193582   0.0030050   0.0029728   0.0023714
           19          20
    1   0.0015884   0.0006243
  
*** Unpaired Electrons
 Yamaguchi Nd:         2.87
 Head-Gordon Nu:       1.83
 Head-Gordon Nu_nl:    1.58
  
**************************************************
 RAS-CI total energy for state  10:   -203.864884024846
  Excitation energy (eV) =  8.260641848648
  State symmetry: B2    (C2v      )
  <S^2>      :  0.7500
  Dipole Moment:    0.0000 X     0.0000 Y     0.2559 Z
  Trans. Moment:    0.0000 X     0.1707 Y    -0.0000 Z
  Strength   :  0.005899
  Natural transition orbitals ( 1 -> 10 ):
   e-/hole pair  1 alpha:  ampl =  0.059796 (  0.4%)   [9 : 10]
   e-/hole pair  2 alpha:  ampl =  0.028822 (  0.1%)   [8 : 11]
   e-/hole pair  1 beta :  ampl =  0.837587 ( 70.2%)   [9 : 10]
   e-/hole pair  2 beta :  ampl =  0.074582 (  0.6%)   [8 : 11]
   Sum of square amplitudes: 0.72

 NATURAL OCCUPATION NUMBERS (higher than 1.0E-05)
            1           2           3           4           5           6
    1   1.9999995   1.9999994   1.9999990   1.9991363   1.9977897   1.9949131
            7           8           9          10          11          12
    1   1.9904598   1.9873981   1.9788092   1.9615999   1.5124271   1.2031242
           13          14          15          16          17          18
    1   0.3199724   0.0293521   0.0166835   0.0027689   0.0024066   0.0019378
           19          20
    1   0.0006366   0.0005869
Natural Orbitals stored in FCHK

  Amplitudes : 
  
 | HOLE  | ALPHA     | BETA      | PART  |    AMPLITUDE 
--------------------------------------------------
 |       | 111111000 | 110111000 |       |     8.2746085445672E-01
 |       | 111101100 | 111101000 |       |     4.4282016962710E-01
 |       | 111101100 | 110101100 |       |    -1.5785216029143E-01
 |       | 110111100 | 110111000 |       |    -1.4406285636307E-01
--------------------------------------------------
*** Contributions RASCI wfn    Active:  97.28
                                 Hole:   1.10
                                 Part:   1.62

      Mulliken population analysis 
 ---------------------------------------------------
   Atom    Charge (a.u.)   Spin (a.u.)  
 ---------------------------------------------------
   1  N    0.451462        0.758571 
   2  O   -0.225731        0.120714 
   3  O   -0.225731        0.120714 
 ---------------------------------------------------
   Sum:   -0.000000        1.000000 
 ---------------------------------------------------
 
  
 NATURAL OCCUPATION NUMBERS (higher than 1.0E-05)
            1           2           3           4           5           6
    1   1.9999995   1.9999994   1.9999990   1.9991363   1.9977897   1.9949131
            7           8           9          10          11          12
    1   1.9904598   1.9873981   1.9788092   1.9615999   1.5124271   1.2031242
           13          14          15          16          17          18
    1   0.3199724   0.0293521   0.0166835   0.0027689   0.0024066   0.0019378
           19          20
    1   0.0006366   0.0005869
  
*** Unpaired Electrons
 Yamaguchi Nd:         2.52
 Head-Gordon Nu:       1.75
 Head-Gordon Nu_nl:    1.77
  
--------------------------------------------------
 Interstate Transition Properties
--------------------------------------------------
State A: Root  1
State B: Root  2
  
Angular momentum components
< B | Lx | A > =    -0.938082674i
< B | Ly | A > =    -0.000000000i
< B | Lz | A > =    -0.000000000i
  
Norm of one-particle transition density matrix
||gamma^AB||_total       =  0.926414
||gamma^AB||_symmetrized =  0.659021
||gamma^AB||_anti-symm   =  0.651101
  
Spin-orbit couplings
 Using HF (reference) density for the 2-elec mean-field SOC contribution
KET: S',Sz' (Root   1) =  0.500 0.500
BRA: S ,Sz  (Root   2) =  0.500 0.500
Clebsh-Gordan coefficient: < 0.500, 0.500; 1.000, 0.000| 0.500, 0.500> =  0.577
 Computing 1e-SO integrals
 1e Reduced matrix elements (cm-1)
<S|| Hso(L-) ||S'> =    -0.0000000000   114.3427661448
<S|| Hso(L0) ||S'> =     0.0000000000    -0.0000000000
<S|| Hso(L+) ||S'> =    -0.0000000000  -114.3427661448
 1-elec SOC matrix (cm-1): < B(S,Sz) | Hso(1e) | A(S',Sz') >
                     |Sz'=-0.50>              |Sz'= 0.50>
 <Sz=-0.50|    0.000000    0.000000i    -0.000000  -93.360478i
 <Sz= 0.50|    0.000000  -93.360478i     0.000000   -0.000000i
1-elec SOCC =   132.031653627 cm-1
 Computing 2e-SOMF integrals
 Averagin spin alpha/beta reference densities
 2e-SOMF Reduced matrix elements (cm-1)
<S|| Hso(L-) ||S'> =     0.0000000000   -44.6564272003
<S|| Hso(L0) ||S'> =     0.0000000000     0.0000000000
<S|| Hso(L+) ||S'> =     0.0000000000    44.6564272003
 2-elec mean-field SOC matrix (cm-1): < B(S,Sz) | Hso(2e-mf) | A(S',Sz') >
                     |Sz'=-0.50>              |Sz'= 0.50>
 <Sz=-0.50|    0.000000   -0.000000i     0.000000   36.461820i
 <Sz= 0.50|   -0.000000   36.461820i     0.000000    0.000000i
 Total mean-field SOC matrix (cm-1): < B(S,Sz) | Hsomf | A(S',Sz') >
                     |Sz'=-0.50>              |Sz'= 0.50>
 <Sz=-0.50|    0.000000    0.000000i    -0.000000  -56.898657i
 <Sz= 0.50|    0.000000  -56.898657i     0.000000   -0.000000i
Mean-Field SOCC =    80.466853097 cm-1
   
**************************************************
State A: Root  1
State B: Root  3
  
Angular momentum components
< B | Lx | A > =     0.000000000i
< B | Ly | A > =    -0.177194270i
< B | Lz | A > =    -0.000000000i
  
Norm of one-particle transition density matrix
||gamma^AB||_total       =  0.932591
||gamma^AB||_symmetrized =  0.710932
||gamma^AB||_anti-symm   =  0.603574
  
Spin-orbit couplings
 Using HF (reference) density for the 2-elec mean-field SOC contribution
KET: S',Sz' (Root   1) =  0.500 0.500
BRA: S ,Sz  (Root   3) =  0.500 0.500
Clebsh-Gordan coefficient: < 0.500, 0.500; 1.000, 0.000| 0.500, 0.500> =  0.577
 Reading 1e-SO integrals
 1e Reduced matrix elements (cm-1)
<S|| Hso(L-) ||S'> =   -63.4125532476    -0.0000000000
<S|| Hso(L0) ||S'> =     0.0000000000    -0.0000000000
<S|| Hso(L+) ||S'> =   -63.4125532476     0.0000000000
 1-elec SOC matrix (cm-1): < B(S,Sz) | Hso(1e) | A(S',Sz') >
                     |Sz'=-0.50>              |Sz'= 0.50>
 <Sz=-0.50|    0.000000    0.000000i   -51.776133    0.000000i
 <Sz= 0.50|   51.776133    0.000000i     0.000000   -0.000000i
1-elec SOCC =    73.222509375 cm-1
 Reading 2e-SOMF integrals
 2e-SOMF Reduced matrix elements (cm-1)
<S|| Hso(L-) ||S'> =    21.7874678057     0.0000000000
<S|| Hso(L0) ||S'> =     0.0000000000     0.0000000000
<S|| Hso(L+) ||S'> =    21.7874678057    -0.0000000000
 2-elec mean-field SOC matrix (cm-1): < B(S,Sz) | Hso(2e-mf) | A(S',Sz') >
                     |Sz'=-0.50>              |Sz'= 0.50>
 <Sz=-0.50|    0.000000   -0.000000i    17.789393   -0.000000i
 <Sz= 0.50|  -17.789393   -0.000000i     0.000000    0.000000i
 Total mean-field SOC matrix (cm-1): < B(S,Sz) | Hsomf | A(S',Sz') >
                     |Sz'=-0.50>              |Sz'= 0.50>
 <Sz=-0.50|    0.000000    0.000000i   -33.986740    0.000000i
 <Sz= 0.50|   33.986740    0.000000i     0.000000   -0.000000i
Mean-Field SOCC =    48.064508570 cm-1
   
**************************************************
State A: Root  1
State B: Root  4
  
Angular momentum components
< B | Lx | A > =     0.000000000i
< B | Ly | A > =    -0.000000000i
< B | Lz | A > =     0.167678583i
  
Norm of one-particle transition density matrix
||gamma^AB||_total       =  0.927422
||gamma^AB||_symmetrized =  0.657411
||gamma^AB||_anti-symm   =  0.654157
  
Spin-orbit couplings
 Using HF (reference) density for the 2-elec mean-field SOC contribution
KET: S',Sz' (Root   1) =  0.500 0.500
BRA: S ,Sz  (Root   4) =  0.500 0.500
Clebsh-Gordan coefficient: < 0.500, 0.500; 1.000, 0.000| 0.500, 0.500> =  0.577
 Reading 1e-SO integrals
 1e Reduced matrix elements (cm-1)
<S|| Hso(L-) ||S'> =    -0.0000000000     0.0000000000
<S|| Hso(L0) ||S'> =     0.0000000000    19.4636642583
<S|| Hso(L+) ||S'> =    -0.0000000000    -0.0000000000
 1-elec SOC matrix (cm-1): < B(S,Sz) | Hso(1e) | A(S',Sz') >
                     |Sz'=-0.50>              |Sz'= 0.50>
 <Sz=-0.50|    0.000000  -11.237352i    -0.000000   -0.000000i
 <Sz= 0.50|    0.000000   -0.000000i     0.000000   11.237352i
1-elec SOCC =    15.892015319 cm-1
 Reading 2e-SOMF integrals
 2e-SOMF Reduced matrix elements (cm-1)
<S|| Hso(L-) ||S'> =     0.0000000000    -0.0000000000
<S|| Hso(L0) ||S'> =     0.0000000000    -6.4389144302
<S|| Hso(L+) ||S'> =     0.0000000000     0.0000000000
 2-elec mean-field SOC matrix (cm-1): < B(S,Sz) | Hso(2e-mf) | A(S',Sz') >
                     |Sz'=-0.50>              |Sz'= 0.50>
 <Sz=-0.50|    0.000000    3.717509i     0.000000    0.000000i
 <Sz= 0.50|   -0.000000    0.000000i     0.000000   -3.717509i
 Total mean-field SOC matrix (cm-1): < B(S,Sz) | Hsomf | A(S',Sz') >
                     |Sz'=-0.50>              |Sz'= 0.50>
 <Sz=-0.50|    0.000000   -7.519843i    -0.000000   -0.000000i
 <Sz= 0.50|    0.000000   -0.000000i     0.000000    7.519843i
Mean-Field SOCC =    10.634663702 cm-1
   
**************************************************
State A: Root  1
State B: Root  5
  
Angular momentum components
< B | Lx | A > =    -0.000000000i
< B | Ly | A > =     0.000028625i
< B | Lz | A > =    -0.000000000i
  
Norm of one-particle transition density matrix
||gamma^AB||_total       =  0.767627
||gamma^AB||_symmetrized =  0.613224
||gamma^AB||_anti-symm   =  0.461745
  
Spin-orbit couplings
 Using HF (reference) density for the 2-elec mean-field SOC contribution
KET: S',Sz' (Root   1) =  0.500 0.500
BRA: S ,Sz  (Root   5) =  1.500 0.500
Clebsh-Gordan coefficient: < 0.500, 0.500; 1.000, 0.000| 1.500, 0.500> =  0.816
 Reading 1e-SO integrals
 1e Reduced matrix elements (cm-1)
<S|| Hso(L-) ||S'> =    -1.7862992419    -0.0000000000
<S|| Hso(L0) ||S'> =     0.0000000000    -0.0000000000
<S|| Hso(L+) ||S'> =    -1.7862992419     0.0000000000
 1-elec SOC matrix (cm-1): < B(S,Sz) | Hso(1e) | A(S',Sz') >
                     |Sz'=-0.50>              |Sz'= 0.50>
 <Sz=-1.50|   -1.786299    0.000000i     0.000000    0.000000i
 <Sz=-0.50|    0.000000   -0.000000i    -1.031320    0.000000i
 <Sz= 0.50|   -1.031320   -0.000000i    -0.000000   -0.000000i
 <Sz= 1.50|    0.000000    0.000000i    -1.786299   -0.000000i
1-elec SOCC =     2.917014447 cm-1
 Reading 2e-SOMF integrals
 2e-SOMF Reduced matrix elements (cm-1)
<S|| Hso(L-) ||S'> =     0.9285420349     0.0000000000
<S|| Hso(L0) ||S'> =     0.0000000000     0.0000000000
<S|| Hso(L+) ||S'> =     0.9285420349    -0.0000000000
 2-elec mean-field SOC matrix (cm-1): < B(S,Sz) | Hso(2e-mf) | A(S',Sz') >
                     |Sz'=-0.50>              |Sz'= 0.50>
 <Sz=-1.50|    0.928542   -0.000000i     0.000000    0.000000i
 <Sz=-0.50|   -0.000000    0.000000i     0.536094   -0.000000i
 <Sz= 0.50|    0.536094    0.000000i     0.000000    0.000000i
 <Sz= 1.50|    0.000000    0.000000i     0.928542    0.000000i
 Total mean-field SOC matrix (cm-1): < B(S,Sz) | Hsomf | A(S',Sz') >
                     |Sz'=-0.50>              |Sz'= 0.50>
 <Sz=-1.50|   -0.857757    0.000000i     0.000000    0.000000i
 <Sz=-0.50|    0.000000   -0.000000i    -0.495226    0.000000i
 <Sz= 0.50|   -0.495226   -0.000000i    -0.000000   -0.000000i
 <Sz= 1.50|    0.000000    0.000000i    -0.857757   -0.000000i
Mean-Field SOCC =     1.400711654 cm-1
   
**************************************************
State A: Root  1
State B: Root  6
  
Angular momentum components
< B | Lx | A > =    -0.000000000i
< B | Ly | A > =     0.000000000i
< B | Lz | A > =     0.468341649i
  
Norm of one-particle transition density matrix
||gamma^AB||_total       =  0.903476
||gamma^AB||_symmetrized =  0.634921
||gamma^AB||_anti-symm   =  0.642763
  
Spin-orbit couplings
 Using HF (reference) density for the 2-elec mean-field SOC contribution
KET: S',Sz' (Root   1) =  0.500 0.500
BRA: S ,Sz  (Root   6) =  0.500 0.500
Clebsh-Gordan coefficient: < 0.500, 0.500; 1.000, 0.000| 0.500, 0.500> =  0.577
 Reading 1e-SO integrals
 1e Reduced matrix elements (cm-1)
<S|| Hso(L-) ||S'> =    -0.0000000000    -0.0000000000
<S|| Hso(L0) ||S'> =     0.0000000000     0.9304501878
<S|| Hso(L+) ||S'> =    -0.0000000000     0.0000000000
 1-elec SOC matrix (cm-1): < B(S,Sz) | Hso(1e) | A(S',Sz') >
                     |Sz'=-0.50>              |Sz'= 0.50>
 <Sz=-0.50|    0.000000   -0.537196i    -0.000000    0.000000i
 <Sz= 0.50|    0.000000    0.000000i     0.000000    0.537196i
1-elec SOCC =     0.759709397 cm-1
 Reading 2e-SOMF integrals
 2e-SOMF Reduced matrix elements (cm-1)
<S|| Hso(L-) ||S'> =     0.0000000000     0.0000000000
<S|| Hso(L0) ||S'> =     0.0000000000    -0.5326712900
<S|| Hso(L+) ||S'> =     0.0000000000    -0.0000000000
 2-elec mean-field SOC matrix (cm-1): < B(S,Sz) | Hso(2e-mf) | A(S',Sz') >
                     |Sz'=-0.50>              |Sz'= 0.50>
 <Sz=-0.50|    0.000000    0.307538i     0.000000   -0.000000i
 <Sz= 0.50|   -0.000000   -0.000000i     0.000000   -0.307538i
 Total mean-field SOC matrix (cm-1): < B(S,Sz) | Hsomf | A(S',Sz') >
                     |Sz'=-0.50>              |Sz'= 0.50>
 <Sz=-0.50|    0.000000   -0.229658i    -0.000000    0.000000i
 <Sz= 0.50|    0.000000    0.000000i     0.000000    0.229658i
Mean-Field SOCC =     0.324785110 cm-1
   
**************************************************
State A: Root  1
State B: Root  7
  
Angular momentum components
< B | Lx | A > =     0.000000000i
< B | Ly | A > =    -0.051666446i
< B | Lz | A > =     0.000000000i
  
Norm of one-particle transition density matrix
||gamma^AB||_total       =  0.562235
||gamma^AB||_symmetrized =  0.438322
||gamma^AB||_anti-symm   =  0.352111
  
Spin-orbit couplings
 Using HF (reference) density for the 2-elec mean-field SOC contribution
KET: S',Sz' (Root   1) =  0.500 0.500
BRA: S ,Sz  (Root   7) =  0.500 0.500
Clebsh-Gordan coefficient: < 0.500, 0.500; 1.000, 0.000| 0.500, 0.500> =  0.577
 Reading 1e-SO integrals
 1e Reduced matrix elements (cm-1)
<S|| Hso(L-) ||S'> =   -17.8351829696    -0.0000000000
<S|| Hso(L0) ||S'> =     0.0000000000    -0.0000000000
<S|| Hso(L+) ||S'> =   -17.8351829696     0.0000000000
 1-elec SOC matrix (cm-1): < B(S,Sz) | Hso(1e) | A(S',Sz') >
                     |Sz'=-0.50>              |Sz'= 0.50>
 <Sz=-0.50|    0.000000    0.000000i   -14.562366    0.000000i
 <Sz= 0.50|   14.562366    0.000000i     0.000000   -0.000000i
1-elec SOCC =    20.594295377 cm-1
 Reading 2e-SOMF integrals
 2e-SOMF Reduced matrix elements (cm-1)
<S|| Hso(L-) ||S'> =     6.7067582207     0.0000000000
<S|| Hso(L0) ||S'> =     0.0000000000     0.0000000000
<S|| Hso(L+) ||S'> =     6.7067582207    -0.0000000000
 2-elec mean-field SOC matrix (cm-1): < B(S,Sz) | Hso(2e-mf) | A(S',Sz') >
                     |Sz'=-0.50>              |Sz'= 0.50>
 <Sz=-0.50|    0.000000   -0.000000i     5.476045   -0.000000i
 <Sz= 0.50|   -5.476045   -0.000000i     0.000000    0.000000i
 Total mean-field SOC matrix (cm-1): < B(S,Sz) | Hsomf | A(S',Sz') >
                     |Sz'=-0.50>              |Sz'= 0.50>
 <Sz=-0.50|    0.000000    0.000000i    -9.086321    0.000000i
 <Sz= 0.50|    9.086321    0.000000i     0.000000   -0.000000i
Mean-Field SOCC =    12.849998049 cm-1
   
**************************************************
State A: Root  1
State B: Root  8
  
Angular momentum components
< B | Lx | A > =     0.000000000i
< B | Ly | A > =    -0.000000000i
< B | Lz | A > =     0.150393091i
  
Norm of one-particle transition density matrix
||gamma^AB||_total       =  0.513834
||gamma^AB||_symmetrized =  0.359233
||gamma^AB||_anti-symm   =  0.367393
  
Spin-orbit couplings
 Using HF (reference) density for the 2-elec mean-field SOC contribution
KET: S',Sz' (Root   1) =  0.500 0.500
BRA: S ,Sz  (Root   8) =  0.500 0.500
Clebsh-Gordan coefficient: < 0.500, 0.500; 1.000, 0.000| 0.500, 0.500> =  0.577
 Reading 1e-SO integrals
 1e Reduced matrix elements (cm-1)
<S|| Hso(L-) ||S'> =     0.0000000001     0.0000000000
<S|| Hso(L0) ||S'> =     0.0000000000    68.3210245996
<S|| Hso(L+) ||S'> =     0.0000000001    -0.0000000000
 1-elec SOC matrix (cm-1): < B(S,Sz) | Hso(1e) | A(S',Sz') >
                     |Sz'=-0.50>              |Sz'= 0.50>
 <Sz=-0.50|    0.000000  -39.445162i     0.000000   -0.000000i
 <Sz= 0.50|   -0.000000   -0.000000i     0.000000   39.445162i
1-elec SOCC =    55.783882991 cm-1
 Reading 2e-SOMF integrals
 2e-SOMF Reduced matrix elements (cm-1)
<S|| Hso(L-) ||S'> =    -0.0000000000    -0.0000000000
<S|| Hso(L0) ||S'> =     0.0000000000   -25.1132238365
<S|| Hso(L+) ||S'> =    -0.0000000000     0.0000000000
 2-elec mean-field SOC matrix (cm-1): < B(S,Sz) | Hso(2e-mf) | A(S',Sz') >
                     |Sz'=-0.50>              |Sz'= 0.50>
 <Sz=-0.50|    0.000000   14.499127i    -0.000000    0.000000i
 <Sz= 0.50|    0.000000    0.000000i     0.000000  -14.499127i
 Total mean-field SOC matrix (cm-1): < B(S,Sz) | Hsomf | A(S',Sz') >
                     |Sz'=-0.50>              |Sz'= 0.50>
 <Sz=-0.50|    0.000000  -24.946035i     0.000000   -0.000000i
 <Sz= 0.50|   -0.000000   -0.000000i     0.000000   24.946035i
Mean-Field SOCC =    35.279021592 cm-1
   
**************************************************
State A: Root  1
State B: Root  9
  
Angular momentum components
< B | Lx | A > =     0.000000000i
< B | Ly | A > =     0.000000000i
< B | Lz | A > =     0.000000000i
  
Norm of one-particle transition density matrix
||gamma^AB||_total       =  0.877904
||gamma^AB||_symmetrized =  0.653933
||gamma^AB||_anti-symm   =  0.585736
  
Spin-orbit couplings
 Using HF (reference) density for the 2-elec mean-field SOC contribution
KET: S',Sz' (Root   1) =  0.500 0.500
BRA: S ,Sz  (Root   9) =  0.500 0.500
Clebsh-Gordan coefficient: < 0.500, 0.500; 1.000, 0.000| 0.500, 0.500> =  0.577
 Reading 1e-SO integrals
 1e Reduced matrix elements (cm-1)
<S|| Hso(L-) ||S'> =     0.0000000000     0.0000000001
<S|| Hso(L0) ||S'> =     0.0000000000    -0.0000000000
<S|| Hso(L+) ||S'> =     0.0000000000    -0.0000000001
 1-elec SOC matrix (cm-1): < B(S,Sz) | Hso(1e) | A(S',Sz') >
                     |Sz'=-0.50>              |Sz'= 0.50>
 <Sz=-0.50|    0.000000    0.000000i     0.000000   -0.000000i
 <Sz= 0.50|   -0.000000   -0.000000i     0.000000   -0.000000i
1-elec SOCC =     0.000000000 cm-1
 Reading 2e-SOMF integrals
 2e-SOMF Reduced matrix elements (cm-1)
<S|| Hso(L-) ||S'> =    -0.0000000000    -0.0000000000
<S|| Hso(L0) ||S'> =     0.0000000000     0.0000000000
<S|| Hso(L+) ||S'> =    -0.0000000000     0.0000000000
 2-elec mean-field SOC matrix (cm-1): < B(S,Sz) | Hso(2e-mf) | A(S',Sz') >
                     |Sz'=-0.50>              |Sz'= 0.50>
 <Sz=-0.50|    0.000000   -0.000000i    -0.000000    0.000000i
 <Sz= 0.50|    0.000000    0.000000i     0.000000    0.000000i
 Total mean-field SOC matrix (cm-1): < B(S,Sz) | Hsomf | A(S',Sz') >
                     |Sz'=-0.50>              |Sz'= 0.50>
 <Sz=-0.50|    0.000000    0.000000i     0.000000   -0.000000i
 <Sz= 0.50|   -0.000000   -0.000000i     0.000000   -0.000000i
Mean-Field SOCC =     0.000000000 cm-1
   
**************************************************
State A: Root  1
State B: Root 10
  
Angular momentum components
< B | Lx | A > =    -0.142516919i
< B | Ly | A > =    -0.000000000i
< B | Lz | A > =    -0.000000000i
  
Norm of one-particle transition density matrix
||gamma^AB||_total       =  0.846126
||gamma^AB||_symmetrized =  0.599952
||gamma^AB||_anti-symm   =  0.596646
  
Spin-orbit couplings
 Using HF (reference) density for the 2-elec mean-field SOC contribution
KET: S',Sz' (Root   1) =  0.500 0.500
BRA: S ,Sz  (Root  10) =  0.500 0.500
Clebsh-Gordan coefficient: < 0.500, 0.500; 1.000, 0.000| 0.500, 0.500> =  0.577
 Reading 1e-SO integrals
 1e Reduced matrix elements (cm-1)
<S|| Hso(L-) ||S'> =    -0.0000000000   -28.7266057078
<S|| Hso(L0) ||S'> =     0.0000000000     0.0000000000
<S|| Hso(L+) ||S'> =    -0.0000000000    28.7266057078
 1-elec SOC matrix (cm-1): < B(S,Sz) | Hso(1e) | A(S',Sz') >
                     |Sz'=-0.50>              |Sz'= 0.50>
 <Sz=-0.50|    0.000000   -0.000000i    -0.000000   23.455175i
 <Sz= 0.50|    0.000000   23.455175i     0.000000    0.000000i
1-elec SOCC =    33.170627077 cm-1
 Reading 2e-SOMF integrals
 2e-SOMF Reduced matrix elements (cm-1)
<S|| Hso(L-) ||S'> =     0.0000000000     8.8247486430
<S|| Hso(L0) ||S'> =     0.0000000000    -0.0000000000
<S|| Hso(L+) ||S'> =     0.0000000000    -8.8247486430
 2-elec mean-field SOC matrix (cm-1): < B(S,Sz) | Hso(2e-mf) | A(S',Sz') >
                     |Sz'=-0.50>              |Sz'= 0.50>
 <Sz=-0.50|    0.000000    0.000000i     0.000000   -7.205377i
 <Sz= 0.50|   -0.000000   -7.205377i     0.000000   -0.000000i
 Total mean-field SOC matrix (cm-1): < B(S,Sz) | Hsomf | A(S',Sz') >
                     |Sz'=-0.50>              |Sz'= 0.50>
 <Sz=-0.50|    0.000000   -0.000000i    -0.000000   16.249798i
 <Sz= 0.50|    0.000000   16.249798i     0.000000    0.000000i
Mean-Field SOCC =    22.980685068 cm-1
   
**************************************************
State A: Root  2
State B: Root  1
  
Angular momentum components
< B | Lx | A > =     0.938082674i
< B | Ly | A > =     0.000000000i
< B | Lz | A > =     0.000000000i
  
Norm of one-particle transition density matrix
||gamma^AB||_total       =  0.926414
||gamma^AB||_symmetrized =  0.659021
||gamma^AB||_anti-symm   =  0.651101
  
Spin-orbit couplings
 Using HF (reference) density for the 2-elec mean-field SOC contribution
KET: S',Sz' (Root   2) =  0.500 0.500
BRA: S ,Sz  (Root   1) =  0.500 0.500
Clebsh-Gordan coefficient: < 0.500, 0.500; 1.000, 0.000| 0.500, 0.500> =  0.577
 Reading 1e-SO integrals
 1e Reduced matrix elements (cm-1)
<S|| Hso(L-) ||S'> =     0.0000000000  -114.3427661448
<S|| Hso(L0) ||S'> =     0.0000000000     0.0000000000
<S|| Hso(L+) ||S'> =     0.0000000000   114.3427661448
 1-elec SOC matrix (cm-1): < B(S,Sz) | Hso(1e) | A(S',Sz') >
                     |Sz'=-0.50>              |Sz'= 0.50>
 <Sz=-0.50|    0.000000   -0.000000i     0.000000   93.360478i
 <Sz= 0.50|   -0.000000   93.360478i     0.000000    0.000000i
1-elec SOCC =   132.031653627 cm-1
 Reading 2e-SOMF integrals
 2e-SOMF Reduced matrix elements (cm-1)
<S|| Hso(L-) ||S'> =    -0.0000000000    44.6564272003
<S|| Hso(L0) ||S'> =     0.0000000000    -0.0000000000
<S|| Hso(L+) ||S'> =    -0.0000000000   -44.6564272003
 2-elec mean-field SOC matrix (cm-1): < B(S,Sz) | Hso(2e-mf) | A(S',Sz') >
                     |Sz'=-0.50>              |Sz'= 0.50>
 <Sz=-0.50|    0.000000    0.000000i    -0.000000  -36.461820i
 <Sz= 0.50|    0.000000  -36.461820i     0.000000   -0.000000i
 Total mean-field SOC matrix (cm-1): < B(S,Sz) | Hsomf | A(S',Sz') >
                     |Sz'=-0.50>              |Sz'= 0.50>
 <Sz=-0.50|    0.000000   -0.000000i     0.000000   56.898657i
 <Sz= 0.50|   -0.000000   56.898657i     0.000000    0.000000i
Mean-Field SOCC =    80.466853097 cm-1
   
**************************************************
State A: Root  2
State B: Root  3
  
Angular momentum components
< B | Lx | A > =    -0.000000000i
< B | Ly | A > =    -0.000000000i
< B | Lz | A > =    -0.072864517i
  
Norm of one-particle transition density matrix
||gamma^AB||_total       =  0.313750
||gamma^AB||_symmetrized =  0.217705
||gamma^AB||_anti-symm   =  0.225928
  
Spin-orbit couplings
 Using HF (reference) density for the 2-elec mean-field SOC contribution
KET: S',Sz' (Root   2) =  0.500 0.500
BRA: S ,Sz  (Root   3) =  0.500 0.500
Clebsh-Gordan coefficient: < 0.500, 0.500; 1.000, 0.000| 0.500, 0.500> =  0.577
 Reading 1e-SO integrals
 1e Reduced matrix elements (cm-1)
<S|| Hso(L-) ||S'> =    -0.0000000000     0.0000000000
<S|| Hso(L0) ||S'> =     0.0000000000     9.3423494848
<S|| Hso(L+) ||S'> =    -0.0000000000    -0.0000000000
 1-elec SOC matrix (cm-1): < B(S,Sz) | Hso(1e) | A(S',Sz') >
                     |Sz'=-0.50>              |Sz'= 0.50>
 <Sz=-0.50|    0.000000   -5.393808i    -0.000000   -0.000000i
 <Sz= 0.50|    0.000000   -0.000000i     0.000000    5.393808i
1-elec SOCC =     7.627996412 cm-1
 Reading 2e-SOMF integrals
 2e-SOMF Reduced matrix elements (cm-1)
<S|| Hso(L-) ||S'> =     0.0000000000    -0.0000000000
<S|| Hso(L0) ||S'> =     0.0000000000    -3.5104073284
<S|| Hso(L+) ||S'> =     0.0000000000     0.0000000000
 2-elec mean-field SOC matrix (cm-1): < B(S,Sz) | Hso(2e-mf) | A(S',Sz') >
                     |Sz'=-0.50>              |Sz'= 0.50>
 <Sz=-0.50|    0.000000    2.026735i     0.000000    0.000000i
 <Sz= 0.50|   -0.000000    0.000000i     0.000000   -2.026735i
 Total mean-field SOC matrix (cm-1): < B(S,Sz) | Hsomf | A(S',Sz') >
                     |Sz'=-0.50>              |Sz'= 0.50>
 <Sz=-0.50|    0.000000   -3.367073i    -0.000000   -0.000000i
 <Sz= 0.50|    0.000000   -0.000000i     0.000000    3.367073i
Mean-Field SOCC =     4.761760831 cm-1
   
**************************************************
State A: Root  2
State B: Root  4
  
Angular momentum components
< B | Lx | A > =     0.000000000i
< B | Ly | A > =     0.034599836i
< B | Lz | A > =     0.000000000i
  
Norm of one-particle transition density matrix
||gamma^AB||_total       =  0.118159
||gamma^AB||_symmetrized =  0.091516
||gamma^AB||_anti-symm   =  0.074742
  
Spin-orbit couplings
 Using HF (reference) density for the 2-elec mean-field SOC contribution
KET: S',Sz' (Root   2) =  0.500 0.500
BRA: S ,Sz  (Root   4) =  0.500 0.500
Clebsh-Gordan coefficient: < 0.500, 0.500; 1.000, 0.000| 0.500, 0.500> =  0.577
 Reading 1e-SO integrals
 1e Reduced matrix elements (cm-1)
<S|| Hso(L-) ||S'> =    -1.3250857680     0.0000000000
<S|| Hso(L0) ||S'> =     0.0000000000    -0.0000000000
<S|| Hso(L+) ||S'> =    -1.3250857680    -0.0000000000
 1-elec SOC matrix (cm-1): < B(S,Sz) | Hso(1e) | A(S',Sz') >
                     |Sz'=-0.50>              |Sz'= 0.50>
 <Sz=-0.50|    0.000000    0.000000i    -1.081928   -0.000000i
 <Sz= 0.50|    1.081928   -0.000000i     0.000000   -0.000000i
1-elec SOCC =     1.530077250 cm-1
 Reading 2e-SOMF integrals
 2e-SOMF Reduced matrix elements (cm-1)
<S|| Hso(L-) ||S'> =     0.4609806442    -0.0000000000
<S|| Hso(L0) ||S'> =     0.0000000000     0.0000000000
<S|| Hso(L+) ||S'> =     0.4609806442     0.0000000000
 2-elec mean-field SOC matrix (cm-1): < B(S,Sz) | Hso(2e-mf) | A(S',Sz') >
                     |Sz'=-0.50>              |Sz'= 0.50>
 <Sz=-0.50|    0.000000   -0.000000i     0.376389    0.000000i
 <Sz= 0.50|   -0.376389    0.000000i     0.000000    0.000000i
 Total mean-field SOC matrix (cm-1): < B(S,Sz) | Hsomf | A(S',Sz') >
                     |Sz'=-0.50>              |Sz'= 0.50>
 <Sz=-0.50|    0.000000    0.000000i    -0.705539   -0.000000i
 <Sz= 0.50|    0.705539   -0.000000i     0.000000   -0.000000i
Mean-Field SOCC =     0.997782652 cm-1
   
**************************************************
State A: Root  2
State B: Root  5
  
Angular momentum components
< B | Lx | A > =     0.000000000i
< B | Ly | A > =    -0.000000000i
< B | Lz | A > =    -0.000027425i
  
Norm of one-particle transition density matrix
||gamma^AB||_total       =  0.753905
||gamma^AB||_symmetrized =  0.548334
||gamma^AB||_anti-symm   =  0.517400
  
Spin-orbit couplings
 Using HF (reference) density for the 2-elec mean-field SOC contribution
KET: S',Sz' (Root   2) =  0.500 0.500
BRA: S ,Sz  (Root   5) =  1.500 0.500
Clebsh-Gordan coefficient: < 0.500, 0.500; 1.000, 0.000| 1.500, 0.500> =  0.816
 Reading 1e-SO integrals
 1e Reduced matrix elements (cm-1)
<S|| Hso(L-) ||S'> =     0.0000000000     0.0000000000
<S|| Hso(L0) ||S'> =     0.0000000000   -13.7180549234
<S|| Hso(L+) ||S'> =     0.0000000000    -0.0000000000
 1-elec SOC matrix (cm-1): < B(S,Sz) | Hso(1e) | A(S',Sz') >
                     |Sz'=-0.50>              |Sz'= 0.50>
 <Sz=-1.50|    0.000000   -0.000000i     0.000000    0.000000i
 <Sz=-0.50|   -0.000000  -11.200745i     0.000000   -0.000000i
 <Sz= 0.50|    0.000000    0.000000i     0.000000  -11.200745i
 <Sz= 1.50|    0.000000    0.000000i     0.000000    0.000000i
1-elec SOCC =    15.840245406 cm-1
 Reading 2e-SOMF integrals
 2e-SOMF Reduced matrix elements (cm-1)
<S|| Hso(L-) ||S'> =    -0.0000000000     0.0000000000
<S|| Hso(L0) ||S'> =     0.0000000000     4.5566498357
<S|| Hso(L+) ||S'> =    -0.0000000000    -0.0000000000
 2-elec mean-field SOC matrix (cm-1): < B(S,Sz) | Hso(2e-mf) | A(S',Sz') >
                     |Sz'=-0.50>              |Sz'= 0.50>
 <Sz=-1.50|   -0.000000   -0.000000i     0.000000    0.000000i
 <Sz=-0.50|    0.000000    3.720489i    -0.000000   -0.000000i
 <Sz= 0.50|   -0.000000    0.000000i    -0.000000    3.720489i
 <Sz= 1.50|    0.000000    0.000000i    -0.000000    0.000000i
 Total mean-field SOC matrix (cm-1): < B(S,Sz) | Hsomf | A(S',Sz') >
                     |Sz'=-0.50>              |Sz'= 0.50>
 <Sz=-1.50|    0.000000   -0.000000i     0.000000    0.000000i
 <Sz=-0.50|   -0.000000   -7.480256i     0.000000   -0.000000i
 <Sz= 0.50|    0.000000    0.000000i     0.000000   -7.480256i
 <Sz= 1.50|    0.000000    0.000000i     0.000000    0.000000i
Mean-Field SOCC =    10.578679387 cm-1
   
**************************************************
State A: Root  2
State B: Root  6
  
Angular momentum components
< B | Lx | A > =     0.000000000i
< B | Ly | A > =     0.185157937i
< B | Lz | A > =     0.000000000i
  
Norm of one-particle transition density matrix
||gamma^AB||_total       =  0.625394
||gamma^AB||_symmetrized =  0.490456
||gamma^AB||_anti-symm   =  0.388034
  
Spin-orbit couplings
 Using HF (reference) density for the 2-elec mean-field SOC contribution
KET: S',Sz' (Root   2) =  0.500 0.500
BRA: S ,Sz  (Root   6) =  0.500 0.500
Clebsh-Gordan coefficient: < 0.500, 0.500; 1.000, 0.000| 0.500, 0.500> =  0.577
 Reading 1e-SO integrals
 1e Reduced matrix elements (cm-1)
<S|| Hso(L-) ||S'> =   -43.8092085778    -0.0000000000
<S|| Hso(L0) ||S'> =     0.0000000000    -0.0000000000
<S|| Hso(L+) ||S'> =   -43.8092085778     0.0000000000
 1-elec SOC matrix (cm-1): < B(S,Sz) | Hso(1e) | A(S',Sz') >
                     |Sz'=-0.50>              |Sz'= 0.50>
 <Sz=-0.50|    0.000000    0.000000i   -35.770069    0.000000i
 <Sz= 0.50|   35.770069    0.000000i     0.000000   -0.000000i
1-elec SOCC =    50.586516731 cm-1
 Reading 2e-SOMF integrals
 2e-SOMF Reduced matrix elements (cm-1)
<S|| Hso(L-) ||S'> =    15.1375631996     0.0000000000
<S|| Hso(L0) ||S'> =     0.0000000000     0.0000000000
<S|| Hso(L+) ||S'> =    15.1375631996    -0.0000000000
 2-elec mean-field SOC matrix (cm-1): < B(S,Sz) | Hso(2e-mf) | A(S',Sz') >
                     |Sz'=-0.50>              |Sz'= 0.50>
 <Sz=-0.50|    0.000000   -0.000000i    12.359769   -0.000000i
 <Sz= 0.50|  -12.359769   -0.000000i     0.000000    0.000000i
 Total mean-field SOC matrix (cm-1): < B(S,Sz) | Hsomf | A(S',Sz') >
                     |Sz'=-0.50>              |Sz'= 0.50>
 <Sz=-0.50|    0.000000    0.000000i   -23.410300    0.000000i
 <Sz= 0.50|   23.410300    0.000000i     0.000000   -0.000000i
Mean-Field SOCC =    33.107164354 cm-1
   
**************************************************
State A: Root  2
State B: Root  7
  
Angular momentum components
< B | Lx | A > =     0.000000000i
< B | Ly | A > =     0.000000000i
< B | Lz | A > =     0.147648243i
  
Norm of one-particle transition density matrix
||gamma^AB||_total       =  0.838679
||gamma^AB||_symmetrized =  0.581972
||gamma^AB||_anti-symm   =  0.603896
  
Spin-orbit couplings
 Using HF (reference) density for the 2-elec mean-field SOC contribution
KET: S',Sz' (Root   2) =  0.500 0.500
BRA: S ,Sz  (Root   7) =  0.500 0.500
Clebsh-Gordan coefficient: < 0.500, 0.500; 1.000, 0.000| 0.500, 0.500> =  0.577
 Reading 1e-SO integrals
 1e Reduced matrix elements (cm-1)
<S|| Hso(L-) ||S'> =    -0.0000000000    -0.0000000000
<S|| Hso(L0) ||S'> =     0.0000000000     5.1551106714
<S|| Hso(L+) ||S'> =    -0.0000000000     0.0000000000
 1-elec SOC matrix (cm-1): < B(S,Sz) | Hso(1e) | A(S',Sz') >
                     |Sz'=-0.50>              |Sz'= 0.50>
 <Sz=-0.50|    0.000000   -2.976305i    -0.000000    0.000000i
 <Sz= 0.50|    0.000000    0.000000i     0.000000    2.976305i
1-elec SOCC =     4.209130238 cm-1
 Reading 2e-SOMF integrals
 2e-SOMF Reduced matrix elements (cm-1)
<S|| Hso(L-) ||S'> =     0.0000000000     0.0000000000
<S|| Hso(L0) ||S'> =     0.0000000000    -1.7256405501
<S|| Hso(L+) ||S'> =     0.0000000000    -0.0000000000
 2-elec mean-field SOC matrix (cm-1): < B(S,Sz) | Hso(2e-mf) | A(S',Sz') >
                     |Sz'=-0.50>              |Sz'= 0.50>
 <Sz=-0.50|    0.000000    0.996299i     0.000000   -0.000000i
 <Sz= 0.50|   -0.000000   -0.000000i     0.000000   -0.996299i
 Total mean-field SOC matrix (cm-1): < B(S,Sz) | Hsomf | A(S',Sz') >
                     |Sz'=-0.50>              |Sz'= 0.50>
 <Sz=-0.50|    0.000000   -1.980005i    -0.000000    0.000000i
 <Sz= 0.50|    0.000000    0.000000i     0.000000    1.980005i
Mean-Field SOCC =     2.800150628 cm-1
   
**************************************************
[...]
    20    5.399296799767e-16
    21    6.394355977079e-14
    22   -1.448664402244e-15
    23   -1.001016074512e-01
    24    4.367985258922e-15
    25    1.554202833428e-14
    26   -3.860515101517e-15
    27    2.632541487651e-15
    28   -7.857892433155e-02
    29    1.442567744674e-14
    30   -2.572205213956e-02
    31   -3.480042238964e-15
    32   -3.386073723417e-15
    33   -3.104352933683e-14
    34   -1.831747123592e-01
    35    6.705989228895e-15
    36   -7.648256913190e-14
    37    1.483173355983e-14
    38   -1.001016074512e-01
    39   -1.059064019706e-14
    40   -2.268945121242e-14
    41    2.955994615346e-15
    42   -3.422317282164e-15
    43    7.857892433155e-02
    44    1.576497183078e-14
    45   -2.572205213956e-02
Sym=X
Ene= 0.833927
Spin=Alpha
Occup=0
     1    2.268794215103e-16
     2   -3.367730357855e-15
     3   -8.849646530914e-01
     4    1.083493010786e-13
     5   -1.537756840512e-14
     6   -1.983311634600e-14
     7    1.544016296198e+00
     8   -1.497431852118e-13
     9    3.859997552503e-14
    10   -5.121800939750e-15
    11   -4.032331066632e-15
    12   -8.181628867049e-16
    13    6.128571064879e-16
    14   -1.433185622784e-01
    15   -5.850614649437e-15
    16    2.884190019712e-02
    17    3.280149433984e-03
    18   -2.369987413409e-01
    19    2.083874251094e-14
    20   -2.059394711969e-02
    21    5.663906910602e-01
    22    5.093535754917e-02
    23    1.453938860431e-14
    24    4.793047512108e-02
    25    1.556683122865e-01
    26   -2.968636280562e-02
    27    2.614850945975e-02
    28    9.718395199300e-15
    29    1.227213121010e-01
    30    2.764854172146e-15
    31   -2.884190019712e-02
    32   -3.280149433963e-03
    33   -2.369987413409e-01
    34    2.307789767775e-14
    35    2.059394711968e-02
    36   -5.663906910602e-01
    37    5.093535754913e-02
    38    1.125304893176e-14
    39   -4.793047512108e-02
    40   -1.556683122865e-01
    41    2.968636280563e-02
    42   -2.614850945974e-02
    43   -9.214496095125e-15
    44    1.227213121010e-01
    45    4.020071473844e-15
Sym=X
Ene= 1.019185
Spin=Alpha
Occup=0
     1   -5.616701766555e-02
     2   -2.921054715702e-01
     3    3.386409253503e-15
     4   -2.634351300224e-15
     5    2.148265167085e-01
     6   -7.379453509909e-01
     7    1.155894433679e-14
     8    4.440346815557e-15
     9    1.254462230333e-02
    10   -4.106427129144e-01
    11    5.959986081308e-02
    12   -6.501531481354e-02
    13   -5.151873715025e-16
    14    9.261407078645e-15
    15    1.299673767805e-15
    16   -3.567215341986e-03
    17    2.050277139171e-01
    18   -5.080074564307e-01
    19    8.772309640016e-18
    20   -2.917413542755e-02
    21    3.656645389983e-04
    22    9.883842126402e-01
    23   -1.524431093978e-15
    24    3.214006295461e-01
    25    1.731865707358e-01
    26    9.171915989755e-02
    27    9.724450133768e-02
    28    7.396293988157e-16
    29    3.037644416422e-02
    30   -1.941158284521e-16
    31   -3.567215341984e-03
    32    2.050277139172e-01
    33    5.080074564307e-01
    34    1.642991850565e-16
    35   -2.917413542758e-02
    36    3.656645389487e-04
    37   -9.883842126403e-01
    38   -1.289315781482e-15
    39    3.214006295462e-01
    40    1.731865707358e-01
    41    9.171915989755e-02
    42    9.724450133769e-02
    43    1.257729088873e-16
    44   -3.037644416422e-02
    45    5.636062761899e-16
Sym=X
Ene= 1.069606
Spin=Alpha
Occup=0
     1   -2.706341930449e-15
     2   -3.210442053988e-16
     3    8.215110229048e-02
     4    1.900669242132e-15
     5    7.622728616911e-15
     6    1.434262878494e-14
     7   -6.105185483673e-01
     8   -6.378137516335e-15
     9   -1.787193387736e-14
    10   -1.617160421068e-14
    11   -8.456962164481e-17
    12   -3.163251419284e-15
    13    4.419381059350e-16
    14   -1.964131110389e-01
    15   -1.326250356964e-16
    16    2.149821164988e-02
    17    4.407823924621e-01
    18   -4.153508148738e-01
    19   -5.849038906611e-15
    20   -3.584792683284e-01
    21   -1.129768068684e+00
    22    4.659293898462e-01
    23    8.821444238306e-15
    24    2.317076793322e-01
    25    1.788079687976e-01
    26    1.617394784688e-01
    27    2.059528850243e-01
    28    6.084242600643e-16
    29    2.477525921499e-02
    30   -1.055290848978e-15
    31   -2.149821164988e-02
    32   -4.407823924620e-01
    33   -4.153508148737e-01
    34   -1.293461137519e-15
    35    3.584792683283e-01
    36    1.129768068684e+00
    37    4.659293898462e-01
    38    3.263088005104e-15
    39   -2.317076793322e-01
    40   -1.788079687976e-01
    41   -1.617394784688e-01
    42   -2.059528850243e-01
    43    4.817520958102e-17
    44    2.477525921499e-02
    45   -1.311449317104e-15
Sym=X
Ene= 1.143856
Spin=Alpha
Occup=0
     1    1.500706954773e-02
     2    1.992990856810e-01
     3   -2.167779039281e-15
     4    6.818637991338e-16
     5   -2.024743483897e-01
     6   -5.926464144935e-01
     7   -9.856509638448e-15
     8   -4.011799096660e-15
     9    9.913350821982e-01
    10    1.617127586878e-01
    11   -5.205716609022e-02
    12    5.666860013084e-04
    13   -1.452476117658e-14
    14    2.060459711412e-15
    15   -6.123759217438e-16
    16   -2.953387400042e-03
    17   -7.675023212874e-03
    18   -2.158627675707e-01
    19    7.479854262078e-14
    20    5.727901819323e-01
    21    3.401199000913e-01
    22    3.713371845331e-01
    23   -8.969234245352e-14
    24   -9.068864578942e-01
    25    4.677089581653e-03
    26   -6.005937972764e-02
    27    1.773565622651e-02
    28    4.551029340561e-15
    29    5.484009989458e-03
    30   -1.267510337828e-16
    31   -2.953387400042e-03
    32   -7.675023212896e-03
    33    2.158627675707e-01
    34   -7.264620210949e-14
    35    5.727901819323e-01
    36    3.401199000913e-01
    37   -3.713371845331e-01
    38    9.170807690720e-14
    39   -9.068864578942e-01
    40    4.677089581645e-03
    41   -6.005937972765e-02
    42    1.773565622651e-02
    43    3.710536374406e-15
    44   -5.484009989461e-03
    45    3.285686888180e-15
Sym=X
Ene= 1.158687
Spin=Alpha
Occup=0
     1   -1.455851079091e-15
     2   -2.261128672725e-14
     3   -3.384426327596e-15
     4   -3.878518774663e-15
     5    2.392829444514e-14
     6    6.506120246506e-14
     7    9.453719901592e-15
     8   -1.295435391955e-15
     9   -1.123110001055e-13
    10   -1.785464827098e-14
    11    7.218774677391e-15
    12   -5.803568791567e-16
    13   -1.336979796538e-01
    14    9.204046393005e-16
    15    5.977850756389e-15
    16    3.083460391501e-16
    17    3.157538111236e-15
    18    2.476711692627e-14
    19    6.565281297110e-01
    20   -7.004933316307e-14
    21   -3.721199414880e-14
    22   -4.275612845653e-14
    23   -8.109001161062e-01
    24    1.101927652254e-13
    25    1.043898955035e-15
    26    7.260579537775e-15
    27   -2.073726052354e-15
    28    4.211191126666e-02
    29   -6.861952398917e-16
    30    1.355594122988e-03
    31    3.310269255068e-16
    32   -5.806107897149e-16
    33   -2.484399395804e-14
    34   -6.565281297110e-01
    35   -5.810145707933e-14
    36   -4.030862152217e-14
    37    4.065153187509e-14
    38    8.109001161062e-01
    39    9.325722544765e-14
    40   -1.807509430803e-15
    41    6.111080213223e-15
    42   -4.000394146801e-16
    43    4.211191126667e-02
    44    1.053381224846e-16
    45   -1.355594122985e-03
Sym=X
Ene= 1.216678
Spin=Alpha
Occup=0
     1   -2.068593115478e-16
     2    3.204922451497e-16
     3    2.610470773649e-13
     4    2.680179969218e-01
     5   -1.224741960653e-15
     6    1.024559963044e-14
     7   -1.351142005648e-12
     8   -9.390777376631e-01
     9   -9.367437448928e-16
    10    1.879310058475e-16
    11    1.533190714604e-16
    12   -1.616355614852e-15
    13    2.834069127027e-15
    14   -3.050911508394e-13
    15   -2.597801045466e-02
    16    5.506533027803e-17
    17   -6.904658991139e-14
    18   -5.283820816981e-13
    19   -6.446858429030e-01
    20    9.873724219292e-13
    21   -5.026098819147e-13
    22    7.653127009261e-13
    23    1.001385266861e+00
    24   -1.493730572224e-12
    25   -1.654410853288e-13
    26    4.515352150664e-14
    27    9.935040386160e-14
    28   -1.515223106479e-02
    29    9.984121320796e-14
    30   -4.786452535629e-02
    31    5.483674237674e-16
    32    7.814856580625e-14
    33   -5.270444204047e-13
    34   -6.446858429030e-01
    35   -9.882592677191e-13
    36    4.781414468967e-13
    37    7.694793609933e-13
    38    1.001385266861e+00
    39    1.491686589003e-12
    40    1.687832316556e-13
    41   -4.130859069037e-14
    42   -9.644173318905e-14
    43    1.515223106479e-02
    44    9.933134504968e-14
    45   -4.786452535629e-02
Sym=X
Ene= 1.211555
Spin=Alpha
Occup=0
     1    3.163546676781e-18
     2    3.505920012720e-15
     3   -1.407762847403e-01
     4    4.989162289779e-13
     5    6.912969545292e-15
     6   -9.212412411817e-14
     7    7.332897192295e-01
     8   -1.744730333270e-12
     9    7.195001640205e-15
    10   -7.005853377227e-15
    11    2.706707343711e-15
    12    2.031113714897e-15
    13    2.137019895798e-15
    14    1.647649384153e-01
    15   -4.792096760637e-14
    16    1.133351339763e-06
    17    3.825255617768e-02
    18    2.864698906485e-01
    19   -1.202221492136e-12
    20   -5.312030895343e-01
    21    2.701816029177e-01
    22   -4.148890212399e-01
    23    1.866319135053e-12
    24    8.045997621044e-01
    25    8.875604455191e-02
    26   -2.339022216370e-02
    27   -5.338035626355e-02
    28   -2.796659938961e-14
    29   -5.350662473425e-02
    30   -8.906708139667e-14
    31   -1.133351343707e-06
    32   -3.825255617773e-02
    33    2.864698906485e-01
    34   -1.190118154401e-12
    35    5.312030895342e-01
    36   -2.701816029175e-01
    37   -4.148890212399e-01
    38    1.850575054536e-12
    39   -8.045997621044e-01
    40   -8.875604455193e-02
    41    2.339022216368e-02
    42    5.338035626353e-02
    43    2.714722964553e-14
    44   -5.350662473425e-02
    45   -8.855331928706e-14
Sym=X
Ene= 1.502006
Spin=Alpha
Occup=0
     1   -1.021471783579e-02
     2   -6.022163518023e-01
     3   -2.634990519011e-14
     4   -1.911225777703e-15
     5   -7.692850983836e-02
     6    4.940574874622e+00
     7    1.049429379492e-12
     8    6.685021501321e-15
     9   -1.303077935447e+00
    10    1.729830954971e-01
    11    1.881359890988e-01
    12   -4.522355391454e-01
    13   -8.136106350361e-15
    14   -5.816880024956e-14
    15   -7.937713066085e-15
    16    7.064605168242e-02
    17    9.940549535483e-01
    18    1.423900610999e-01
    19    2.345958294373e-16
    20    2.932713380409e-02
    21   -3.629169693710e+00
    22   -1.463377742810e+00
    23   -6.815135331150e-15
    24   -4.088502434545e-01
    25    1.892881838602e-01
    26    4.848669651577e-01
    27    1.531473805903e-01
    28    4.342966228562e-15
    29    1.072513049301e-01
    30    2.871650837323e-15
    31    7.064605168246e-02
    32    9.940549535489e-01
    33   -1.423900611000e-01
    34    6.228955209727e-15
    35    2.932713380420e-02
    36   -3.629169693712e+00
    37    1.463377742810e+00
    38   -6.593514664869e-15
    39   -4.088502434551e-01
    40    1.892881838604e-01
    41    4.848669651578e-01
    42    1.531473805904e-01
    43   -2.364908342917e-15
    44   -1.072513049301e-01
    45   -2.147434864669e-14
Sym=X
Ene= 1.636231
Spin=Alpha
Occup=0
     1    1.632315703656e-16
     2    1.169136230086e-15
     3   -5.382935592127e-14
     4    9.779640904655e-15
     5   -3.787288977121e-15
     6   -3.685174391962e-14
     7    1.174994495556e-12
     8   -1.103174736506e-14
     9    1.190713464431e-14
    10    3.354757478507e-16
    11    2.429520190543e-14
    12   -2.399639689102e-14
    13    5.807450995348e-01
    14   -5.698284413390e-14
    15    3.798893299161e-14
    16   -2.290847734573e-14
    17   -3.898932317885e-13
    18   -8.036022644971e-14
    19    1.857016752080e-01
    20   -6.639704132847e-14
    21    1.445714849086e-12
    22    4.796230150724e-13
    23    2.350339750645e-02
    24    3.355989549038e-13
    25   -1.231552666948e-13
    26   -4.009122541238e-14
    27   -1.332628186629e-13
    28   -3.093469575001e-01
    29   -2.444866940240e-15
    30   -2.610026976351e-01
    31    2.186540274492e-14
    32    3.735436140901e-13
    33   -7.921656742142e-14
    34   -1.857016752080e-01
    35    6.110476432967e-14
    36   -1.386802678817e-12
    37    4.528113287877e-13
    38   -2.350339750644e-02
    39   -3.330071316086e-13
    40    1.054717353842e-13
    41    5.655764170741e-14
    42    1.215541394145e-13
    43   -3.093469575001e-01
    44   -2.540121431865e-14
    45    2.610026976352e-01
Sym=X
Ene= 1.647713
Spin=Alpha
Occup=0
     1   -4.045582436826e-15
     2   -1.158709857785e-13
     3    1.836623521297e-01
     4   -1.166117523196e-13
     5   -2.161898924075e-14
     6    1.096871931765e-12
     7   -3.758728806164e+00
     8    1.312746962876e-13
     9   -2.943850946191e-13
    10    4.059770298691e-14
    11    5.818943761159e-14
    12   -1.295669841217e-13
    13    1.861062810656e-13
    14    1.714040815582e-01
    15   -4.755984112971e-13
    16    7.100390059732e-02
    17    1.217250938523e+00
    18    2.578473156964e-01
    19    4.413055553328e-14
    20    2.032581572446e-01
    21   -4.515947759325e+00
    22   -1.484761183633e+00
    23   -8.528114223753e-14
    24   -1.068822662582e+00
    25    3.664688165209e-01
    26    1.482991821536e-01
    27    4.075373572673e-01
    28    9.421214781363e-14
    29    5.202104822963e-02
    30   -2.502607207767e-13
    31   -7.100390059728e-02
    32   -1.217250938523e+00
    33    2.578473156963e-01
    34   -7.521224740009e-14
    35   -2.032581572446e-01
    36    4.515947759323e+00
    37   -1.484761183632e+00
    38   -9.897164252501e-14
    39    1.068822662581e+00
    40   -3.664688165208e-01
    41   -1.482991821534e-01
    42   -4.075373572672e-01
    43   -2.948494783196e-13
    44    5.202104822956e-02
    45   -1.022598950580e-13
Sym=X
Ene= 1.649258
Spin=Alpha
Occup=0
     1    4.706501092283e-16
     2    8.517373300833e-15
     3    1.263383774100e-13
     4    1.782873379054e-01
     5   -7.041460549956e-15
     6   -8.578092058937e-14
     7   -2.515003823278e-12
     8   -1.927464870246e-01
     9    3.187836670170e-14
    10    9.633813828370e-16
    11    2.781180769881e-14
    12   -2.586511819434e-14
    13   -3.025027494506e-14
    14    1.118912636493e-13
    15    7.137038196902e-01
    16    4.621179139670e-14
    17    7.984858189789e-13
    18    1.732293435514e-13
    19    2.331435320204e-02
    20    1.328323677126e-13
    21   -2.956780102543e-12
    22   -9.663470387896e-13
    23    1.347835806429e-01
    24   -7.134989206956e-13
    25    2.317866376831e-13
    26    1.028817680064e-13
    27    2.679108271709e-13
    28   -2.924913459606e-01
    29    5.158013564284e-14
    30    2.538493253004e-01
    31   -4.844344324030e-14
    32   -8.316213397310e-13
    33    1.764889358135e-13
    34    2.331435320207e-02
    35   -1.370806463827e-13
    36    3.083691810448e-12
    37   -1.021614203183e-12
    38    1.347835806428e-01
    39    7.140532449475e-13
    40   -2.568791805692e-13
    41   -8.726190501795e-14
    42   -2.851352483406e-13
    43    2.924913459606e-01
    44    2.407653818031e-14
    45    2.538493253004e-01
Sym=X
Ene= 1.719624
Spin=Alpha
Occup=0
     1    2.260460281780e-03
     2   -4.454474876389e-01
     3    2.065586418002e-14
     4    9.109342380308e-15
     5    1.876964657969e-01
     6    3.458714411842e+00
     7    1.837443880843e-14
     8   -6.700370090370e-15
     9   -1.129055922639e+00
    10    1.897228258758e-03
    11   -4.718626652373e-01
    12    4.953710204278e-01
    13    2.444020234128e-14
    14   -1.889685074746e-14
    15    3.412223234087e-14
    16    3.865325592778e-02
    17    6.986636059893e-01
    18    1.197755270670e-01
    19    9.909445718564e-15
    20    8.974885306695e-02
    21   -2.499536694741e+00
    22   -1.113994928972e+00
    23    4.674028437523e-15
    24   -1.646835096848e-01
    25    3.465414520499e-01
    26   -5.696567654684e-03
    27    1.318991387027e-01
    28   -2.951057170044e-14
    29   -2.792952496496e-01
    30    6.667466127508e-15
    31    3.865325592778e-02
    32    6.986636059892e-01
    33   -1.197755270669e-01
    34   -6.403389140927e-15
    35    8.974885306695e-02
    36   -2.499536694741e+00
    37    1.113994928972e+00
    38    4.344703035457e-15
    39   -1.646835096848e-01
    40    3.465414520499e-01
    41   -5.696567654623e-03
    42    1.318991387026e-01
    43   -1.073386945882e-15
    44    2.792952496496e-01
    45    6.477700294308e-15
Sym=X
Ene= 1.992736
Spin=Alpha
Occup=0
     1   -1.438788579816e-15
     2    4.516189827084e-14
     3    1.190696917324e-02
     4   -4.802303903940e-15
     5   -1.356595519856e-14
     6   -3.289866809184e-13
     7    1.668749057612e+00
     8   -5.881730048632e-16
     9    9.208989363826e-14
    10    4.796720341748e-15
    11    4.277043452432e-15
    12   -1.633199075180e-14
    13   -4.375845407324e-15
    14   -3.545183913124e-01
    15   -1.205545107769e-14
    16   -2.026526231513e-02
    17   -2.410270795033e-01
    18    1.581430210861e-01
    19   -5.506993788908e-15
    20   -4.402943852379e-02
    21    1.512421967016e+00
    22    3.771435447655e-01
    23    2.709547063900e-15
    24    3.949244113094e-01
    25   -1.111719247520e-01
    26   -5.349184952882e-01
    27    5.344882750521e-01
    28    3.508353895412e-14
    29   -1.291966421850e-01
    30   -2.889811159418e-14
    31    2.026526231512e-02
    32    2.410270795032e-01
    33    1.581430210861e-01
    34   -4.567218369782e-16
    35    4.402943852376e-02
    36   -1.512421967015e+00
    37    3.771435447653e-01
    38   -1.586371344342e-16
    39   -3.949244113094e-01
    40    1.111719247519e-01
    41    5.349184952882e-01
    42   -5.344882750521e-01
    43    2.405617557367e-14
    44   -1.291966421851e-01
    45    5.546706608777e-14
Sym=X
Ene= 2.020873
Spin=Alpha
Occup=0
     1    4.016481787292e-15
     2   -6.209729385316e-15
     3    1.097257686684e-14
     4   -5.193880602176e-15
     5    8.818249656540e-15
     6    8.487352027313e-15
     7   -1.638763408485e-13
     8   -5.313758286442e-15
     9    4.059387673973e-15
    10   -1.217270214920e-14
    11    1.444865640006e-14
    12    2.287953129820e-14
    13   -5.080868277835e-03
    14    2.148996678012e-14
    15   -1.099842282367e-14
    16    1.521793009376e-15
    17    4.508348727039e-14
    18    6.023750409734e-15
    19   -4.612817160684e-02
    20    1.606931084463e-14
    21   -1.710934318173e-13
    22   -5.510665720845e-14
    23    5.176729160108e-02
    24   -5.001117567153e-14
    25    2.250556215622e-14
    26    6.435278204093e-14
    27   -6.695699588275e-14
    28    4.163853287366e-01
    29    1.078449173419e-14
    30   -5.728468781286e-01
    31   -1.722070645516e-15
    32   -1.759269759873e-14
    33   -1.507262631257e-14
    34    4.612817160683e-02
    35    4.994422148533e-15
    36    1.362324939250e-13
    37   -2.927562847801e-14
    38   -5.176729160107e-02
    39    2.927256449644e-14
    40   -4.752996002599e-15
    41   -1.175977673854e-14
    42    8.076116425289e-15
    43    4.163853287366e-01
    44    2.225437614911e-14
    45    5.728468781286e-01

======= END OF MOLDEN-FORMATTED INPUT FILE =======


        *************************************************************
        *                                                           *
        *  Thank you very much for using Q-Chem.  Have a nice day.  *
        *                                                           *
        *************************************************************


