                  Welcome to Q-Chem
     A Quantum Leap Into The Future Of Chemistry


 Q-Chem 6.0 (devel), Q-Chem, Inc., Pleasanton, CA (2022)

 E. Epifanovsky,  A. T. B. Gilbert,  Xintian Feng,  Joonho Lee,  Yuezhi Mao,  
 N. Mardirossian,  P. Pokhilko,  A. White,  M. Wormit,  M. P. Coons,  
 A. L. Dempwolff,  Zhengting Gan,  D. Hait,  P. R. Horn,  L. D. Jacobson,  
 I. Kaliman,  J. Kussmann,  A. W. Lange,  Ka Un Lao,  D. S. Levine,  Jie Liu,  
 S. C. McKenzie,  A. F. Morrison,  K. Nanda,  F. Plasser,  D. R. Rehn,  
 M. L. Vidal,  Zhi-Qiang You,  Ying Zhu,  B. Alam,  B. Albrecht,  
 A. Aldossary,  E. Alguire,  J. H. Andersen,  V. Athavale,  D. Barton,  
 K. Begam,  A. Behn,  N. Bellonzi,  Y. A. Bernard,  E. J. Berquist,  
 H. Burton,  A. Carreras,  K. Carter-Fenk,  Romit Chakraborty,  
 Chandrima Chakravarty,  Junhan Chen,  A. D. Chien,  K. D. Closser,  
 V. Cofer-Shabica,  L. Cunha,  S. Dasgupta,  Jia Deng,  M. de Wergifosse,  
 M. Diedenhofen,  Hainam Do,  S. Ehlert,  Po-Tung Fang,  S. Fatehi,  
 Qingguo Feng,  T. Friedhoff,  B. Ganoe,  J. Gayvert,  Qinghui Ge,  
 G. Gidofalvi,  M. Goldey,  J. Gomes,  C. Gonzalez-Espinoza,  S. Gulania,  
 A. Gunina,  J. A. Gyamfi,  M. W. D. Hanson-Heine,  P. H. P. Harbach,  
 A. W. Hauser,  M. F. Herbst,  M. Hernandez Vera,  M. Hodecker,  
 Z. C. Holden,  S. Houck,  Xunkun Huang,  Kerwin Hui,  B. C. Huynh,  
 K. Ikeda,  M. Ivanov,  Hyunjun Ji,  Zuxin Jin,  Hanjie Jiang,  B. Kaduk,  
 S. Kaehler,  R. Kang,  K. Khistyaev,  Jaehoon Kim,  Yongbin Kim,  
 P. Klunzinger,  Z. Koczor-Benda,  Joong Hoon Koh,  D. Kosenkov,  
 Saikiran Kotaru,  L. Koulias,  T. Kowalczyk,  C. M. Krauter,  K. Kue,  
 A. Kunitsa,  T. Kus,  A. Landau,  K. V. Lawler,  D. Lefrancois,  S. Lehtola,  
 Rain Li,  Shaozhi Li,  Yi-Pei Li,  Jiashu Liang,  M. Liebenthal,  
 Hung-Hsuan Lin,  You-Sheng Lin,  Fenglai Liu,  Kuan-Yu Liu,  
 M. Loipersberger,  A. Luenser,  C. Malbon,  A. Manjanath,  P. Manohar,  
 E. Mansoor,  S. F. Manzer,  Shan-Ping Mao,  A. V. Marenich,  T. Markovich,  
 S. Mason,  F. Matz,  S. A. Maurer,  P. F. McLaughlin,  M. F. S. J. Menger,  
 J.-M. Mewes,  S. A. Mewes,  P. Morgante,  Mohammad Mostafanejad,  
 J. W. Mullinax,  K. J. Oosterbaan,  G. Paran,  V. Parravicini,  
 Alexander C. Paul,  Suranjan K. Paul,  F. Pavosevic,  Zheng Pei,  S. Prager,  
 E. I. Proynov,  E. Ramos,  B. Rana,  A. E. Rask,  A. Rettig,  R. M. Richard,  
 F. Rob,  E. Rossomme,  T. Scheele,  M. Scheurer,  M. Schneider,  
 P. E. Schneider,  N. Sergueev,  S. M. Sharada,  Hengyuan Shen,  
 W. Skomorowski,  D. W. Small,  C. J. Stein,  Yingli Su,  Yu-Chuan Su,  
 E. J. Sundstrom,  Zhen Tao,  J. Thirman,  Hung-Yi Tsai,  T. Tsuchimochi,  
 N. M. Tubman,  C. Utku,  S. P. Veccham,  O. Vydrov,  J. Wenzel,  
 Jonathan Wong,  J. Witte,  A. Yamada,  Chou-Hsun Yang,  Kun Yao,  
 S. Yeganeh,  S. R. Yost,  A. Zech,  F. Zeller,  Igor Ying Zhang,  
 Xing Zhang,  Yu Zhang,  D. Zuev,  A. Aspuru-Guzik,  A. T. Bell,  
 N. A. Besley,  K. B. Bravaya,  B. R. Brooks,  D. Casanova,  Jeng-Da Chai,  
 Hsing-Ta Chen,  S. Coriani,  C. J. Cramer,  A. E. DePrince, III,  
 R. A. DiStasio Jr.,  A. Dreuw,  B. D. Dunietz,  T. R. Furlani,  
 W. A. Goddard III,  S. Grimme,  S. Hammes-Schiffer,  T. Head-Gordon,  
 W. J. Hehre,  Chao-Ping Hsu,  T.-C. Jagau,  Yousung Jung,  A. Klamt,  
 Jing Kong,  D. S. Lambrecht,  Xiangyuan Li,  WanZhen Liang,  N. J. Mayhall,  
 C. W. McCurdy,  J. B. Neaton,  T. Neudecker,  C. Ochsenfeld,  
 J. A. Parkhill,  R. Peverati,  V. A. Rassolov,  Haisheng Ren,  Yihan Shao,  
 L. V. Slipchenko,  R. P. Steele,  J. E. Subotnik,  A. J. W. Thom,  
 A. Tkatchenko,  D. G. Truhlar,  T. Van Voorhis,  Fan Wang,  
 T. A. Wesolowski,  K. B. Whaley,  H. L. Woodcock III,  P. M. Zimmerman,  
 S. Faraji,  P. M. W. Gill,  M. Head-Gordon,  J. M. Herbert,  A. I. Krylov

 Contributors to earlier versions of Q-Chem not listed above: 
 R. D. Adamson,  B. Austin,  R. Baer,  J. Baker,  G. J. O. Beran,  
 K. Brandhorst,  S. T. Brown,  E. F. C. Byrd,  Arup K. Chakraborty,  
 G. K. L. Chan,  Chun-Min Chang,  Yunqing Chen,  C.-L. Cheng,  
 Siu Hung Chien,  D. M. Chipman,  D. L. Crittenden,  H. Dachsel,  
 R. J. Doerksen,  A. D. Dutoi,  R. G. Edgar,  J. Fosso-Tande,  
 L. Fusti-Molnar,  D. Ghosh,  A. Ghysels,  A. Golubeva-Zadorozhnaya,  
 J. Gonthier,  M. S. Gordon,  S. R. Gwaltney,  G. Hawkins,  J. E. Herr,  
 A. Heyden,  S. Hirata,  E. G. Hohenstein,  G. Kedziora,  F. J. Keil,  
 C. Kelley,  Jihan Kim,  R. A. King,  R. Z. Khaliullin,  P. P. Korambath,  
 W. Kurlancheek,  A. Laurent,  A. M. Lee,  M. S. Lee,  S. V. Levchenko,  
 Ching Yeh Lin,  D. Liotard,  E. Livshits,  R. C. Lochan,  I. Lotan,  
 L. A. Martinez-Martinez,  P. E. Maslen,  N. Nair,  D. P. O'Neill,  
 D. Neuhauser,  E. Neuscamman,  C. M. Oana,  R. Olivares-Amaya,  R. Olson,  
 T. M. Perrine,  B. Peters,  P. A. Pieniazek,  A. Prociuk,  Y. M. Rhee,  
 J. Ritchie,  M. A. Rohrdanz,  E. Rosta,  N. J. Russ,  H. F. Schaefer III,  
 M. W. Schmidt,  N. E. Schultz,  S. Sharma,  N. Shenvi,  C. D. Sherrill,  
 A. C. Simmonett,  A. Sodt,  T. Stein,  D. Stuck,  K. S. Thanthiriwatte,  
 V. Vanovschi,  L. Vogt,  Tao Wang,  A. Warshel,  M. A. Watson,  
 C. F. Williams,  Q. Wu,  X. Xu,  Jun Yang,  W. Zhang,  Yan Zhao

   Please cite Q-Chem as follows:
  "Software for the frontiers of quantum chemistry:
   An overview of developments in the Q-Chem 5 package"
   J. Chem. Phys. 155, 084801 (2021)
   https://doi.org/10.1063/5.0055522 (open access)

 Q-Chem 6.0.1 for Intel X86 EM64T Linux

 Parts of Q-Chem use Armadillo 9.900.5 (Nocturnal Misbehaviour).
 http://arma.sourceforge.net/

 Q-Chem begins on Tue Sep 12 15:58:05 2023  

 Host: atlas-fdr-login-02
0

     Scratch files written to ./qchem13859//
 Processing $rem in /scratch/abel/SOFTWARE/qchem/config/preferences:
 Processing $rem in /dipc/acebg/.qchemrc:

 Checking the input file for inconsistencies... 	...done.

--------------------------------------------------------------
User input:
--------------------------------------------------------------
$comment
 RAS-SF CALCULATION
$end

$molecule
1 2    !charge and multiplicity
O1
H1 O1 oh
H2 O1 oh H1 hoh

oh = 0.997
hoh = 109.17
$end

$rem
!**CALCULATION TYPE***     
JOBTYPE            sp    
EXCHANGE           HF
CORRELATION        RASCI    !RASCI=Casanova; RASCI2=Zimmerman
BASIS              STO-3G

!***SCF REFERENCE***
!SKIP_SCFMAN        FALSE
UNRESTRICTED       FALSE
!SCF_GUESS          core
!SCF_GUESS_MIX      FALSE
!SCF_GUESS_ALWAYS   FALSE
MAX_SCF_CYCLES     500
SCF_CONVERGENCE    10
!SCF_ALGORITHM      DIIS !DIIS,DM,DIIS_DM,GDM,DIIS_GDM,GD

!SYMMETRY           TRUE   !use of symmetry for calculating integrals
!SYM_IGNORE         FALSE  !turn off using symmetry
!SYM_TOL            5      !tolerance for determining point group
!USE_ABELIAN_SUBGROUP      !define to use abelian group

!THRESH             14
SCF_FINAL_PRINT     1 !0,1,2,3

!****RAS-SF****
RAS_ROOTS          10       !number of RAS-CI roots to be computed
SET_ITER           50     !number of iterations in RASCI
RAS_ELEC           5       !number of electrons in RAS2
!RAS_ELEC_ALPHA            !spin-α electrons in RAS2 
!RAS_ELEC_BETA             !spin-β electrons in RAS2

RAS_ACT            5       !number of orbitals in RAS2 
RAS_ACT_ORB  [3,4,5,6,7]      !user-selected RAS2 orbitals
RAS_OCC            2       !number of orbitals in RAS1
!N_FROZEN_CORE      FC     !Number of frozen core orbitals
!N_FROZEN_VIRTUAL   0      !Number of frozen virtual orbitals

RAS_DO_HOLE        TRUE   !presence of hole excitations in RAS-CI wave function
RAS_DO_PART        TRUE   !presence of particle excitations
!RAS_AMPL_PRINT     10     !threshold (×10 2 ) for the CI amplitudes

!RAS_GUESS_CS       0      !number of closed shell guess conﬁgurations
!RAS_SPIN_MULT       0      !spin multiplicity. Only for Ms = 0 
!RAS_SRDFT          FALSE  !short-range density functional RAS-CI
!RAS_NFRAG          0     !fragments of excitation analysis in RASCI

RAS_PRINT          2      !level of information
RAS_NATORB         TRUE   !computation of the natural orbital occupancies
!RAS_NATORB_STATE  0      !Saves NO of i RAS computed state in .fchk ﬁle
!RAS_FOD            TRUE

!****RAS-SOC****
CALC_SOC           TRUE   !calculate SOC for EOM-CC, RAS-CI, ADC, TDDFT/TDA and TDDFT
!RAS_SOC_2E        TRUE   !two-electron mean-ﬁeld contribution, default=true
RAS_SOC_SYM_DENS   TRUE   !averaging of α and β densities

!****MEMORY****
MEM_TOTAL          12000 !Default 2000 MB
MEM_STATIC         3000  !Default 64 MB

!**Molecular Properties and Analysis **                                                                                          
POP_MULLIKEN       TRUE   !Run Mulliken population analysis
LOWDIN_POPULATION  TRUE   !Run Löwdin population analysis
GUI                0       !Checkpoints generation
STATE_ANALYSIS     TRUE

!**Wave function analysis of RAS-CI states: MOLDEN**
!PLOTS = 0     ! Note: This can be omitted, default is 0
!NTO_PAIRS = 2 ! Note: This can be omitted, default is 2
!GUI 0
!MOLDEN_FORMAT      TRUE
!PRINT_ORBITALS     15

!**Wave function analysis of RAS-CI state: CUBE**
!NTO_PAIRS = 2 ! Note: This can be omitted, default is 2
!PLOTS = 1
!GUI 0

!**SR-DFT**
!RAS_SRDFT           TRUE !Perform short-range density functional RAS-CI
!RAS_SRDFT_EXC       0 !EX functional. 0=HF. 
!RAS_SRDFT_ONLY_COR  TRUE !No use of EXC functional
!RAS_SRDFT_COR       srPBE !short-range correlation functional
!ras_srdft_0         TRUE !true: no iteration (one-shot); false: iteration
!RAS_OMEGA           400 !Coulomb range-separation parameter. def=400
!RAS_SRDFT_DAMP     0.5 !dumping factor. def=0.5
$end

!$plots
!   grid_points 100 100 100
!   grid_range  (-10,10) (-10,10) (-10,10)
!$end

--------------------------------------------------------------
 ----------------------------------------------------------------
             Standard Nuclear Orientation (Angstroms)
    I     Atom           X                Y                Z
 ----------------------------------------------------------------
    1      O       0.0000000000     0.0000000000     0.1155512138
    2      H      -0.8125311840    -0.0000000000    -0.4622048550
    3      H       0.8125311840    -0.0000000000    -0.4622048550
 ----------------------------------------------------------------
 Molecular Point Group                 C2v   NOp =  4
 Largest Abelian Subgroup              C2v   NOp =  4
 Nuclear Repulsion Energy =           8.81794733 hartrees
 There are        5 alpha and        4 beta electrons
 Requested basis set is STO-3G
 There are 4 shells and 7 basis functions

 Total QAlloc Memory Limit  12000 MB
 Mega-Array Size      2933 MB
 MEM_STATIC part      3000 MB


                       Distance Matrix (Angstroms)
             O (  1)   H (  2)
   H (  2)  0.997000
   H (  3)  0.997000  1.625062
 
 A cutoff of  1.0D-14 yielded     10 shell pairs
 There are        34 function pairs
 Smallest overlap matrix eigenvalue = 3.69E-01

 Scale SEOQF with 1.000000e+00/1.000000e+00/1.000000e+00

 Standard Electronic Orientation quadrupole field applied
 Nucleus-field energy     =    -0.0000000001 hartrees
 Guess from superposition of atomic densities
 Warning:  Energy on first SCF cycle will be non-variational
 SAD guess density has 10.000000 electrons

 -----------------------------------------------------------------------
  General SCF calculation program by
  Eric Jon Sundstrom, Paul Horn, Yuezhi Mao, Dmitri Zuev, Alec White,
  David Stuck, Shaama M.S., Shane Yost, Joonho Lee, David Small,
  Daniel Levine, Susi Lehtola, Hugh Burton, Evgeny Epifanovsky,
  Bang C. Huynh
 -----------------------------------------------------------------------
 Hartree-Fock
 Orthonormalizing orbitals
 A restricted open-shell SCF calculation will be
 performed using GDM
 SCF converges when RMS gradient is below 1.0e-10
 ---------------------------------------
  Cycle       Energy        RMS Gradient
 ---------------------------------------
    1     -73.3635147196      7.08e-01   Descent step
    2     -73.6056312369      4.80e-01   Descent step
    3     -73.7368520927      2.15e-01   Normal BFGS step
Fro norm of D 1.079978426563e+00
transformation scaled by 2
    4     -73.7696809427      2.77e-01   Dog-leg BFGS step
    5     -74.1964929703      7.07e-01   Descent step
    6     -74.4164926362      4.43e-01   Descent step
    7     -74.5374703879      2.36e-01   Dog-leg BFGS step
    8     -74.5869005125      4.17e-02   Normal BFGS step
    9     -74.5890447908      4.57e-03   Normal BFGS step
   10     -74.5890695629      6.95e-04   Normal BFGS step
   11     -74.5890704879      8.08e-05   Normal BFGS step
   12     -74.5890704950      1.48e-05   Normal BFGS step
   13     -74.5890704953      2.79e-06   Normal BFGS step
   14     -74.5890704953      5.31e-07   Normal BFGS step
   15     -74.5890704953      3.63e-08   Normal BFGS step
   16     -74.5890704953      1.58e-09   Normal BFGS step
   17     -74.5890704953      4.58e-10   Normal BFGS step
   18     -74.5890704953      8.97e-11  Convergence criterion met
The disked orbital energies are calculated using alpha and beta Focks
 ---------------------------------------
 Alpha HF Exchange    Energy =  -4.62961301408404
 Beta HF Exchange     Energy =  -3.95691975098042
 Nuclear Attraction   Energy =   0.00000000000000
 One-Electron (alpha) Energy = -61.65834213990388
 One-Electron (beta)  Energy = -54.46822598996835
 Total Coulomb        Energy =  41.30608307361281
 Final Alpha MO Eigenvalues
            1           2           3           4           5           6
    1 -20.9564320  -1.8227426  -1.1498602  -0.9724428  -1.1353991   0.0748869
            7
    1   0.1811098
 Final Beta MO Eigenvalues
            1           2           3           4           5           6
    1 -20.9279097  -1.6999411  -1.1068728  -0.9158671  -0.2917866   0.1236627
            7
    1   0.2328730
 SCF time:   CPU 0.11s  wall 1.00s 
<S^2> =          0.750000000
 SCF   energy in the final basis set =      -74.5890704953
 Total energy in the final basis set =      -74.5890704953
  
     ##========================================##
     ||                                        ||
     ||              R A S M A N 2             ||
     ||________________________________________||
     ||                                        ||
     ||  Author:                               ||
     ||                                        ||
     ||        David Casanova (2010)           ||
     ||                                        ||
     ##========================================##
  
Setting single-point xc-functionals (if necessary)

  ***************************************************
  *  RAS-CI Dimensions:                             *
  *                                                 *
  *  Active Elec.:   5 ( 3, 2)   Active Orb.:   5   *
  *  Doubly Occ. :   2           Doubly Vir.:   0   *
  *  Frozen Occ. :   0           Frozen Vir.:   0   *
  *                                                 *
  *  Total CI configurations:       400             * 
  *    Active configurations:       100             * 
  *      Hole configurations:       300             * 
  *  Particle configurations:         0             * 
  *                                                 *
  *   Requested states:       10                    *
  *  Spin multiplicity: Any multiplicity            *
  *                                                 *
  ***************************************************
-----------------------------------------
    Memory requirements of RASCI

 Each CI-vector requires      0.00 MiB 
 Max. subspace vectors            400      

 Reduced Lists                0.00 MiB 
 Excitation Lists             0.00 MiB 
 Excitation Lists Sign        0.00 MiB 
 CI-space (Max)               2.47 MiB 
 Integrals                    0.02 MiB 
 Memory required (Max)        2.48 MiB 
 Memory available          2861.02 MiB 

    Disk requirements of RASCI

 Fock matrix                  0.00 MiB 
 2-electron integrals         0.02 MiB 
 CI-space                     2.44 MiB 
 Disk required                2.46 MiB 
-----------------------------------------
  
RAS1 HF-like energy:            -62.4672596004
 Computing integrals
 Computing J and K matrices
 Computing addressing
 Making amplitude guesses
 
Direct CI diagonalization
 ---------------------------------------------------
 Iter    Rts Conv    Rts Left    Ttl Dev     Max Dev
 ---------------------------------------------------
   1         0          10      0.141532    0.018152
   2         0          10      0.077888    0.011887
   3         0          10      0.081823    0.015002
   4         0          10      0.035155    0.010409
   5         0          10      0.045261    0.015333
   6         0          10      0.036308    0.009239
   7         0          10      0.019599    0.008673
   8         0          10      0.022445    0.009245
   9         0          10      0.018661    0.010402
  10         0          10      0.031370    0.019211
  11         0          10      0.009800    0.005101
  12         2           8      0.009185    0.005106
  13         2           8      0.006049    0.003075
  14         2           8      0.004640    0.002852
  15         5           5      0.015693    0.009974
  16         5           5      0.010169    0.006334
  17         6           4      0.006055    0.003036
  18         7           3      0.003713    0.002002
  19         7           3      0.001999    0.001025
  20         7           3      0.005186    0.003062
  21         7           3      0.003050    0.001965
  22         7           3      0.001037    0.000702
  23         7           3      0.000947    0.000645
  24         8           2      0.000154    0.000103
  25         8           2      0.000127    0.000084
  26         8           2      0.000049    0.000032
  27         9           1      0.000015    0.000008
  28         9           1      0.000015    0.000008
  29         9           1      0.000005    0.000001
  30         9           1      0.000005    0.000002
  31        10           0      0.000003    0.000001    Roots Converged
 ---------------------------------------------------
   
**************************************************
 RAS-CI total energy for state   1:    -74.705061364497
  Excitation energy (eV) =  0.000000000000
  State symmetry: B2    (C2v      )
  <S^2>      :  0.7500
  Dipole Moment:   -0.0000 X     0.0000 Y     0.8940 Z
 NATURAL OCCUPATION NUMBERS (higher than 1.0E-05)
            1           2           3           4           5           6
    1   1.9999990   1.9975640   1.9845478   1.9753406   1.0000000   0.0229851
            7
    1   0.0195635
 Created directory ./qchem13859/plots

  Amplitudes : 
  
 | HOLE  | ALPHA | BETA  | PART  |    AMPLITUDE 
--------------------------------------------------
 |       | 11100 | 10100 |       |     9.8743669003650E-01
--------------------------------------------------
*** Contributions RASCI wfn    Active:  99.26
                                 Hole:   0.74
                                 Part:   0.00

      Mulliken population analysis 
 ---------------------------------------------------
   Atom    Charge (a.u.)   Spin (a.u.)  
 ---------------------------------------------------
   1  O    0.160723        1.091648 
   2  H    0.419639       -0.045824 
   3  H    0.419639       -0.045824 
 ---------------------------------------------------
   Sum:    1.000000        1.000000 
 ---------------------------------------------------
 
  
 NATURAL OCCUPATION NUMBERS (higher than 1.0E-05)
            1           2           3           4           5           6
    1   1.9999990   1.9975640   1.9845478   1.9753406   1.0000000   0.0229851
            7
    1   0.0195635
  
*** Unpaired Electrons
 Yamaguchi Nd:         1.17
 Head-Gordon Nu:       1.09
 Head-Gordon Nu_nl:    1.01
  
**************************************************
 RAS-CI total energy for state   2:    -74.620931776227
  Excitation energy (eV) =  2.289282571872
  State symmetry: A1    (C2v      )
  <S^2>      :  0.7500
  Dipole Moment:    0.0000 X    -0.0000 Y     0.7014 Z
  Trans. Moment:   -0.0000 X     0.1763 Y    -0.0000 Z
  Strength   :  0.001744
  Natural transition orbitals ( 1 -> 2 ):
   e-/hole pair  1 alpha:  ampl =  0.010438 (  0.0%)   [5 : 6]
   e-/hole pair  2 alpha:  ampl =  0.001709 (  0.0%)   [4 : 7]
   e-/hole pair  1 beta :  ampl =  0.993325 ( 98.7%)   [5 : 6]
   e-/hole pair  2 beta :  ampl =  0.000377 (  0.0%)   [4 : 7]
   Sum of square amplitudes: 0.99

 NATURAL OCCUPATION NUMBERS (higher than 1.0E-05)
            1           2           3           4           5           6
    1   1.9999991   1.9988186   1.9942150   1.9759391   0.9993892   0.0198415
            7
    1   0.0117974

  Amplitudes : 
  
 | HOLE  | ALPHA | BETA  | PART  |    AMPLITUDE 
--------------------------------------------------
 |       | 11100 | 11000 |       |     9.9122485199507E-01
--------------------------------------------------
*** Contributions RASCI wfn    Active:  99.42
                                 Hole:   0.58
                                 Part:   0.00

      Mulliken population analysis 
 ---------------------------------------------------
   Atom    Charge (a.u.)   Spin (a.u.)  
 ---------------------------------------------------
   1  O    0.091595        0.947845 
   2  H    0.454203        0.026077 
   3  H    0.454203        0.026077 
 ---------------------------------------------------
   Sum:    1.000000        1.000000 
 ---------------------------------------------------
 
  
 NATURAL OCCUPATION NUMBERS (higher than 1.0E-05)
            1           2           3           4           5           6
    1   1.9999991   1.9988186   1.9942150   1.9759391   0.9993892   0.0198415
            7
    1   0.0117974
  
*** Unpaired Electrons
 Yamaguchi Nd:         1.12
 Head-Gordon Nu:       1.06
 Head-Gordon Nu_nl:    1.00
  
**************************************************
 RAS-CI total energy for state   3:    -74.410109656797
  Excitation energy (eV) =  8.026044318878
  State symmetry: B1    (C2v      )
  <S^2>      :  0.7500
  Dipole Moment:    0.0000 X     0.0000 Y     1.0834 Z
  Trans. Moment:    0.0000 X    -0.0000 Y    -0.0000 Z
  Strength   :  0.000000
  Natural transition orbitals ( 1 -> 3 ):
   e-/hole pair  1 alpha:  ampl =  0.057718 (  0.3%)   [5 : 6]
   e-/hole pair  2 alpha:  ampl =  0.035967 (  0.1%)   [4 : 7]
   e-/hole pair  1 beta :  ampl =  0.978722 ( 95.8%)   [5 : 6]
   e-/hole pair  2 beta :  ampl =  0.002232 (  0.0%)   [4 : 7]
   Sum of square amplitudes: 0.96

 NATURAL OCCUPATION NUMBERS (higher than 1.0E-05)
            1           2           3           4           5           6
    1   1.9999994   1.9939580   1.9908896   1.9788091   1.0028413   0.0179648
            7
    1   0.0155379

  Amplitudes : 
  
 | HOLE  | ALPHA | BETA  | PART  |    AMPLITUDE 
--------------------------------------------------
 |       | 11100 | 01100 |       |     9.7974584921214E-01
 |       | 11010 | 01100 |       |     1.0779773661669E-01
--------------------------------------------------
*** Contributions RASCI wfn    Active:  99.17
                                 Hole:   0.83
                                 Part:   0.00

      Mulliken population analysis 
 ---------------------------------------------------
   Atom    Charge (a.u.)   Spin (a.u.)  
 ---------------------------------------------------
   1  O   -0.039243        0.543118 
   2  H    0.519622        0.228441 
   3  H    0.519622        0.228441 
 ---------------------------------------------------
   Sum:    1.000000        1.000000 
 ---------------------------------------------------
 
  
 NATURAL OCCUPATION NUMBERS (higher than 1.0E-05)
            1           2           3           4           5           6
    1   1.9999994   1.9939580   1.9908896   1.9788091   1.0028413   0.0179648
            7
    1   0.0155379
  
*** Unpaired Electrons
 Yamaguchi Nd:         1.14
 Head-Gordon Nu:       1.07
 Head-Gordon Nu_nl:    1.00
  
**************************************************
 RAS-CI total energy for state   4:    -74.199556977923
  Excitation energy (eV) = 13.755474215329
  State symmetry: B2    (C2v      )
  <S^2>      :  3.7500
  Dipole Moment:   -0.0000 X     0.0000 Y     0.0190 Z
  Trans. Moment:   -0.0000 X    -0.0000 Y    -0.0000 Z
  Strength   :  0.000000
  Natural transition orbitals ( 1 -> 4 ):
   e-/hole pair  1 alpha:  ampl =  0.555934 ( 30.9%)   [5 : 6]
   e-/hole pair  2 alpha:  ampl =  0.109235 (  1.2%)   [4 : 7]
   e-/hole pair  1 beta :  ampl =  0.555934 ( 30.9%)   [5 : 6]
   e-/hole pair  2 beta :  ampl =  0.109235 (  1.2%)   [4 : 7]
   Sum of square amplitudes: 0.65

 NATURAL OCCUPATION NUMBERS (higher than 1.0E-05)
            1           2           3           4           5           6
    1   1.9999991   1.9964268   1.9436238   1.0380454   1.0000000   0.9644216
            7
    1   0.0574832

  Amplitudes : 
  
 | HOLE  | ALPHA | BETA  | PART  |    AMPLITUDE 
--------------------------------------------------
 |       | 11100 | 10010 |       |     5.5470572637821E-01
 |       | 11100 | 00101 |       |     1.0571723763028E-01
 |       | 11010 | 10100 |       |    -5.5470572637814E-01
 |       | 10110 | 11000 |       |     5.5470572637822E-01
 |       | 10101 | 01100 |       |    -1.0571723763030E-01
 |       | 01101 | 10100 |       |     1.0571723763030E-01
--------------------------------------------------
*** Contributions RASCI wfn    Active:  98.44
                                 Hole:   1.56
                                 Part:   0.00

      Mulliken population analysis 
 ---------------------------------------------------
   Atom    Charge (a.u.)   Spin (a.u.)  
 ---------------------------------------------------
   1  O    0.613978        0.693652 
   2  H    0.193011        0.153174 
   3  H    0.193011        0.153174 
 ---------------------------------------------------
   Sum:    1.000000        1.000000 
 ---------------------------------------------------
 
  
 NATURAL OCCUPATION NUMBERS (higher than 1.0E-05)
            1           2           3           4           5           6
    1   1.9999991   1.9964268   1.9436238   1.0380454   1.0000000   0.9644216
            7
    1   0.0574832
  
*** Unpaired Electrons
 Yamaguchi Nd:         3.23
 Head-Gordon Nu:       3.04
 Head-Gordon Nu_nl:    3.02
  
**************************************************
 RAS-CI total energy for state   5:    -74.125333470601
  Excitation energy (eV) = 15.775198609918
  State symmetry: A2    (C2v      )
  <S^2>      :  3.7500
  Dipole Moment:    0.0000 X     0.0000 Y     0.1502 Z
  Trans. Moment:   -0.0000 X    -0.0000 Y    -0.0000 Z
  Strength   :  0.000000
  Natural transition orbitals ( 1 -> 5 ):
   e-/hole pair  1 alpha:  ampl =  0.499029 ( 24.9%)   [5 : 6]
   e-/hole pair  2 alpha:  ampl =  0.274597 (  7.5%)   [4 : 7]
   e-/hole pair  1 beta :  ampl =  0.499029 ( 24.9%)   [5 : 6]
   e-/hole pair  2 beta :  ampl =  0.274597 (  7.5%)   [4 : 7]
   Sum of square amplitudes: 0.65

 NATURAL OCCUPATION NUMBERS (higher than 1.0E-05)
            1           2           3           4           5           6
    1   1.9999984   1.9952751   1.7551632   1.2249944   1.0000000   0.7711275
            7
    1   0.2534415

  Amplitudes : 
  
 | HOLE  | ALPHA | BETA  | PART  |    AMPLITUDE 
--------------------------------------------------
 |       | 11100 | 10001 |       |     4.9881496333761E-01
 |       | 11100 | 00110 |       |     2.7363878247914E-01
 |       | 11001 | 10100 |       |    -4.9881501602056E-01
 |       | 10110 | 01100 |       |    -2.7363875561189E-01
 |       | 10101 | 11000 |       |     4.9881501469109E-01
 |       | 01110 | 10100 |       |     2.7363875760356E-01
--------------------------------------------------
*** Contributions RASCI wfn    Active:  98.62
                                 Hole:   1.38
                                 Part:   0.00

      Mulliken population analysis 
 ---------------------------------------------------
   Atom    Charge (a.u.)   Spin (a.u.)  
 ---------------------------------------------------
   1  O    0.561174        0.736622 
   2  H    0.219413        0.131689 
   3  H    0.219413        0.131689 
 ---------------------------------------------------
   Sum:    1.000000        1.000000 
 ---------------------------------------------------
 
  
 NATURAL OCCUPATION NUMBERS (higher than 1.0E-05)
            1           2           3           4           5           6
    1   1.9999984   1.9952751   1.7551632   1.2249944   1.0000000   0.7711275
            7
    1   0.2534415
  
*** Unpaired Electrons
 Yamaguchi Nd:         3.78
 Head-Gordon Nu:       3.05
 Head-Gordon Nu_nl:    3.18
  
**************************************************
 RAS-CI total energy for state   6:    -74.120785980407
  Excitation energy (eV) = 15.898942113992
  State symmetry: A1    (C2v      )
  <S^2>      :  0.7500
  Dipole Moment:   -0.0000 X    -0.0000 Y     0.1502 Z
  Trans. Moment:    0.0000 X     0.1001 Y     0.0000 Z
  Strength   :  0.003899
  Natural transition orbitals ( 1 -> 6 ):
   e-/hole pair  1 alpha:  ampl =  0.916605 ( 84.0%)   [5 : 6]
   e-/hole pair  2 alpha:  ampl =  0.009505 (  0.0%)   [4 : 7]
   e-/hole pair  1 beta :  ampl =  0.195812 (  3.8%)   [5 : 6]
   e-/hole pair  2 beta :  ampl =  0.040005 (  0.2%)   [4 : 7]
   Sum of square amplitudes: 0.88

 NATURAL OCCUPATION NUMBERS (higher than 1.0E-05)
            1           2           3           4           5           6
    1   1.9999994   1.9629153   1.9584124   1.8755485   0.9562771   0.2088719
            7
    1   0.0379754

  Amplitudes : 
  
 | HOLE  | ALPHA | BETA  | PART  |    AMPLITUDE 
--------------------------------------------------
 |       | 11010 | 11000 |       |    -2.3246959652110E-01
 |       | 10110 | 10100 |       |     9.2413521676886E-01
 |       | 10110 | 00101 |       |    -1.3016598970380E-01
 |   2   | 11100 | 11100 |       |    -1.9496924873572E-01
--------------------------------------------------
*** Contributions RASCI wfn    Active:  95.54
                                 Hole:   4.46
                                 Part:   0.00

      Mulliken population analysis 
 ---------------------------------------------------
   Atom    Charge (a.u.)   Spin (a.u.)  
 ---------------------------------------------------
   1  O    0.616429        0.100004 
   2  H    0.191785        0.449998 
   3  H    0.191785        0.449998 
 ---------------------------------------------------
   Sum:    1.000000        1.000000 
 ---------------------------------------------------
 
  
 NATURAL OCCUPATION NUMBERS (higher than 1.0E-05)
            1           2           3           4           5           6
    1   1.9999994   1.9629153   1.9584124   1.8755485   0.9562771   0.2088719
            7
    1   0.0379754
  
*** Unpaired Electrons
 Yamaguchi Nd:         1.83
 Head-Gordon Nu:       1.41
 Head-Gordon Nu_nl:    1.21
  
**************************************************
 RAS-CI total energy for state   7:    -74.114452681031
  Excitation energy (eV) = 16.071279958288
  State symmetry: B2    (C2v      )
  <S^2>      :  0.7500
  Dipole Moment:   -0.0000 X     0.0000 Y    -0.0279 Z
  Trans. Moment:   -0.0000 X     0.0000 Y    -0.2352 Z
  Strength   :  0.021789
  Natural transition orbitals ( 1 -> 7 ):
   e-/hole pair  1 alpha:  ampl =  0.180346 (  3.3%)   [5 : 6]
   e-/hole pair  2 alpha:  ampl =  0.120465 (  1.5%)   [4 : 7]
   e-/hole pair  1 beta :  ampl =  0.750637 ( 56.3%)   [5 : 6]
   e-/hole pair  2 beta :  ampl =  0.028395 (  0.1%)   [4 : 7]
   Sum of square amplitudes: 0.61

 NATURAL OCCUPATION NUMBERS (higher than 1.0E-05)
            1           2           3           4           5           6
    1   1.9999994   1.9905593   1.9428165   1.0895658   1.0000000   0.9161663
            7
    1   0.0608927

  Amplitudes : 
  
 | HOLE  | ALPHA | BETA  | PART  |    AMPLITUDE 
--------------------------------------------------
 |       | 11100 | 10010 |       |     7.4526523947405E-01
 |       | 11010 | 10100 |       |     1.7181733088791E-01
 |       | 10110 | 11000 |       |    -5.7344790858615E-01
 |       | 01101 | 10100 |       |     1.1882681285790E-01
 |       | 01101 | 10010 |       |     1.0946701011153E-01
--------------------------------------------------
*** Contributions RASCI wfn    Active:  98.15
                                 Hole:   1.85
                                 Part:   0.00

      Mulliken population analysis 
 ---------------------------------------------------
   Atom    Charge (a.u.)   Spin (a.u.)  
 ---------------------------------------------------
   1  O    0.542897        1.127841 
   2  H    0.228551       -0.063920 
   3  H    0.228551       -0.063920 
 ---------------------------------------------------
   Sum:    1.000000        1.000000 
 ---------------------------------------------------
 
  
 NATURAL OCCUPATION NUMBERS (higher than 1.0E-05)
            1           2           3           4           5           6
    1   1.9999994   1.9905593   1.9428165   1.0895658   1.0000000   0.9161663
            7
    1   0.0608927
  
*** Unpaired Electrons
 Yamaguchi Nd:         3.23
 Head-Gordon Nu:       2.95
 Head-Gordon Nu_nl:    3.00
  
**************************************************
 RAS-CI total energy for state   8:    -74.069671591387
  Excitation energy (eV) = 17.289835405665
  State symmetry: B2    (C2v      )
  <S^2>      :  0.7500
  Dipole Moment:   -0.0000 X     0.0000 Y     0.0578 Z
  Trans. Moment:   -0.0000 X     0.0000 Y    -0.2343 Z
  Strength   :  0.023262
  Natural transition orbitals ( 1 -> 8 ):
   e-/hole pair  1 alpha:  ampl =  0.743419 ( 55.3%)   [5 : 6]
   e-/hole pair  2 alpha:  ampl =  0.022404 (  0.1%)   [4 : 7]
   e-/hole pair  1 beta :  ampl =  0.238941 (  5.7%)   [5 : 6]
   e-/hole pair  2 beta :  ampl =  0.181718 (  3.3%)   [4 : 7]
   Sum of square amplitudes: 0.65

 NATURAL OCCUPATION NUMBERS (higher than 1.0E-05)
            1           2           3           4           5           6
    1   1.9999993   1.9821665   1.9179279   1.0818504   1.0000000   0.9298340
            7
    1   0.0882219

  Amplitudes : 
  
 | HOLE  | ALPHA | BETA  | PART  |    AMPLITUDE 
--------------------------------------------------
 |       | 11100 | 10010 |       |     2.3272743807172E-01
 |       | 11100 | 00101 |       |    -1.8231993618170E-01
 |       | 11010 | 10100 |       |     7.4834879099291E-01
 |       | 10110 | 11000 |       |     5.1562135292110E-01
 |       | 10101 | 01100 |       |    -1.5859003807045E-01
 |   2   | 10110 | 11100 |       |     1.2219545013810E-01
--------------------------------------------------
*** Contributions RASCI wfn    Active:  97.27
                                 Hole:   2.73
                                 Part:   0.00

      Mulliken population analysis 
 ---------------------------------------------------
   Atom    Charge (a.u.)   Spin (a.u.)  
 ---------------------------------------------------
   1  O    0.576689        0.283913 
   2  H    0.211656        0.358043 
   3  H    0.211656        0.358043 
 ---------------------------------------------------
   Sum:    1.000000        1.000000 
 ---------------------------------------------------
 
  
 NATURAL OCCUPATION NUMBERS (higher than 1.0E-05)
            1           2           3           4           5           6
    1   1.9999993   1.9821665   1.9179279   1.0818504   1.0000000   0.9298340
            7
    1   0.0882219
  
*** Unpaired Electrons
 Yamaguchi Nd:         3.35
 Head-Gordon Nu:       3.04
 Head-Gordon Nu_nl:    3.03
  
**************************************************
 RAS-CI total energy for state   9:    -74.047827327526
  Excitation energy (eV) = 17.884248068099
  State symmetry: A2    (C2v      )
  <S^2>      :  0.7500
  Dipole Moment:    0.0000 X    -0.0000 Y     0.1859 Z
  Trans. Moment:   -0.3468 X    -0.0000 Y     0.0000 Z
  Strength   :  0.052685
  Natural transition orbitals ( 1 -> 9 ):
   e-/hole pair  1 alpha:  ampl =  0.202861 (  4.1%)   [5 : 6]
   e-/hole pair  2 alpha:  ampl =  0.098100 (  1.0%)   [4 : 7]
   e-/hole pair  1 beta :  ampl =  0.698655 ( 48.8%)   [5 : 6]
   e-/hole pair  2 beta :  ampl =  0.044483 (  0.2%)   [4 : 7]
   Sum of square amplitudes: 0.54

 NATURAL OCCUPATION NUMBERS (higher than 1.0E-05)
            1           2           3           4           5           6
    1   1.9999994   1.9904277   1.8811186   1.0991966   1.0000000   0.8934093
            7
    1   0.1358484

  Amplitudes : 
  
 | HOLE  | ALPHA | BETA  | PART  |    AMPLITUDE 
--------------------------------------------------
 |       | 11100 | 10001 |       |    -6.9583300934766E-01
 |       | 10110 | 01100 |       |    -2.4516154343699E-01
 |       | 10101 | 11000 |       |     6.0023674637581E-01
 |       | 01110 | 10100 |       |    -2.0313410698121E-01
--------------------------------------------------
*** Contributions RASCI wfn    Active:  98.54
                                 Hole:   1.46
                                 Part:   0.00

      Mulliken population analysis 
 ---------------------------------------------------
   Atom    Charge (a.u.)   Spin (a.u.)  
 ---------------------------------------------------
   1  O    0.498018        0.978275 
   2  H    0.250991        0.010862 
   3  H    0.250991        0.010862 
 ---------------------------------------------------
   Sum:    1.000000        1.000000 
 ---------------------------------------------------
 
  
 NATURAL OCCUPATION NUMBERS (higher than 1.0E-05)
            1           2           3           4           5           6
    1   1.9999994   1.9904277   1.8811186   1.0991966   1.0000000   0.8934093
            7
    1   0.1358484
  
*** Unpaired Electrons
 Yamaguchi Nd:         3.47
 Head-Gordon Nu:       3.06
 Head-Gordon Nu_nl:    3.07
  
**************************************************
 RAS-CI total energy for state  10:    -74.043455873334
  Excitation energy (eV) = 18.003201388819
  State symmetry: A2    (C2v      )
  <S^2>      :  3.7500
  Dipole Moment:   -0.0000 X     0.0000 Y     0.2437 Z
  Trans. Moment:    0.0000 X     0.0000 Y    -0.0000 Z
  Strength   :  0.000000
  Natural transition orbitals ( 1 -> 10 ):
   e-/hole pair  1 alpha:  ampl =  0.490504 ( 24.1%)   [5 : 6]
   e-/hole pair  2 alpha:  ampl =  0.278959 (  7.8%)   [4 : 7]
   e-/hole pair  1 beta :  ampl =  0.490504 ( 24.1%)   [5 : 6]
   e-/hole pair  2 beta :  ampl =  0.278960 (  7.8%)   [4 : 7]
   Sum of square amplitudes: 0.64

 NATURAL OCCUPATION NUMBERS (higher than 1.0E-05)
            1           2           3           4           5           6
    1   1.9999994   1.9959261   1.7480879   1.2463895   1.0000000   0.7512278
            7
    1   0.2583693

  Amplitudes : 
  
 | HOLE  | ALPHA | BETA  | PART  |    AMPLITUDE 
--------------------------------------------------
 |       | 11100 | 10001 |       |    -2.7348812414792E-01
 |       | 11100 | 00110 |       |     4.9652074527888E-01
 |       | 11001 | 10100 |       |     2.7348820514319E-01
 |       | 10110 | 01100 |       |    -4.9652099437045E-01
 |       | 10101 | 11000 |       |    -2.7348830382257E-01
 |       | 01110 | 10100 |       |     4.9652090096212E-01
--------------------------------------------------
*** Contributions RASCI wfn    Active:  97.94
                                 Hole:   2.06
                                 Part:   0.00

      Mulliken population analysis 
 ---------------------------------------------------
   Atom    Charge (a.u.)   Spin (a.u.)  
 ---------------------------------------------------
   1  O    0.476413        0.641088 
   2  H    0.261794        0.179456 
   3  H    0.261794        0.179456 
 ---------------------------------------------------
   Sum:    1.000000        1.000000 
 ---------------------------------------------------
 
  
 NATURAL OCCUPATION NUMBERS (higher than 1.0E-05)
            1           2           3           4           5           6
    1   1.9999994   1.9959261   1.7480879   1.2463895   1.0000000   0.7512278
            7
    1   0.2583693
  
*** Unpaired Electrons
 Yamaguchi Nd:         3.78
 Head-Gordon Nu:       3.02
 Head-Gordon Nu_nl:    3.16
  
--------------------------------------------------
 Interstate Transition Properties
--------------------------------------------------
State A: Root  1
State B: Root  2
  
Angular momentum components
< B | Lx | A > =    -0.952435974i
< B | Ly | A > =     0.000000000i
< B | Lz | A > =    -0.000000000i
  
Norm of one-particle transition density matrix
||gamma^AB||_total       =  0.993381
||gamma^AB||_symmetrized =  0.702410
||gamma^AB||_anti-symm   =  0.702443
  
Spin-orbit couplings
 Using HF (reference) density for the 2-elec mean-field SOC contribution
KET: S',Sz' (Root   1) =  0.500 0.500
BRA: S ,Sz  (Root   2) =  0.500 0.500
Clebsh-Gordan coefficient: < 0.500, 0.500; 1.000, 0.000| 0.500, 0.500> = -0.577
 Computing 1e-SO integrals
 1e Reduced matrix elements (cm-1)
<S|| Hso(L-) ||S'> =    -0.0000000000    87.9616751092
<S|| Hso(L0) ||S'> =     0.0000000000    -0.0000000000
<S|| Hso(L+) ||S'> =    -0.0000000000   -87.9616751092
 1-elec SOC matrix (cm-1): < B(S,Sz) | Hso(1e) | A(S',Sz') >
                     |Sz'=-0.50>              |Sz'= 0.50>
 <Sz=-0.50|    0.000000   -0.000000i     0.000000   71.820407i
 <Sz= 0.50|   -0.000000   71.820407i    -0.000000    0.000000i
1-elec SOCC =   101.569393605 cm-1
 Computing 2e-SOMF integrals
 Averagin spin alpha/beta reference densities
 2e-SOMF Reduced matrix elements (cm-1)
<S|| Hso(L-) ||S'> =     0.0000000000   -34.7349766480
<S|| Hso(L0) ||S'> =     0.0000000000     0.0000000000
<S|| Hso(L+) ||S'> =     0.0000000000    34.7349766480
 2-elec mean-field SOC matrix (cm-1): < B(S,Sz) | Hso(2e-mf) | A(S',Sz') >
                     |Sz'=-0.50>              |Sz'= 0.50>
 <Sz=-0.50|    0.000000    0.000000i    -0.000000  -28.360990i
 <Sz= 0.50|    0.000000  -28.360990i     0.000000   -0.000000i
 Total mean-field SOC matrix (cm-1): < B(S,Sz) | Hsomf | A(S',Sz') >
                     |Sz'=-0.50>              |Sz'= 0.50>
 <Sz=-0.50|    0.000000   -0.000000i     0.000000   43.459417i
 <Sz= 0.50|   -0.000000   43.459417i    -0.000000    0.000000i
Mean-Field SOCC =    61.460897369 cm-1
   
**************************************************
State A: Root  1
State B: Root  3
  
Angular momentum components
< B | Lx | A > =    -0.000000000i
< B | Ly | A > =     0.000000000i
< B | Lz | A > =     0.906225562i
  
Norm of one-particle transition density matrix
||gamma^AB||_total       =  0.981084
||gamma^AB||_symmetrized =  0.696713
||gamma^AB||_anti-symm   =  0.690737
  
Spin-orbit couplings
 Using HF (reference) density for the 2-elec mean-field SOC contribution
KET: S',Sz' (Root   1) =  0.500 0.500
BRA: S ,Sz  (Root   3) =  0.500 0.500
Clebsh-Gordan coefficient: < 0.500, 0.500; 1.000, 0.000| 0.500, 0.500> = -0.577
 Reading 1e-SO integrals
 1e Reduced matrix elements (cm-1)
<S|| Hso(L-) ||S'> =    -0.0000000000     0.0000000000
<S|| Hso(L0) ||S'> =     0.0000000000   102.9388781977
<S|| Hso(L+) ||S'> =    -0.0000000000    -0.0000000000
 1-elec SOC matrix (cm-1): < B(S,Sz) | Hso(1e) | A(S',Sz') >
                     |Sz'=-0.50>              |Sz'= 0.50>
 <Sz=-0.50|    0.000000   59.431789i     0.000000    0.000000i
 <Sz= 0.50|   -0.000000    0.000000i    -0.000000  -59.431789i
1-elec SOCC =    84.049242093 cm-1
 Reading 2e-SOMF integrals
 2e-SOMF Reduced matrix elements (cm-1)
<S|| Hso(L-) ||S'> =     0.0000000000    -0.0000000000
<S|| Hso(L0) ||S'> =     0.0000000000   -39.4455328674
<S|| Hso(L+) ||S'> =     0.0000000000     0.0000000000
 2-elec mean-field SOC matrix (cm-1): < B(S,Sz) | Hso(2e-mf) | A(S',Sz') >
                     |Sz'=-0.50>              |Sz'= 0.50>
 <Sz=-0.50|    0.000000  -22.773889i    -0.000000   -0.000000i
 <Sz= 0.50|    0.000000   -0.000000i     0.000000   22.773889i
 Total mean-field SOC matrix (cm-1): < B(S,Sz) | Hsomf | A(S',Sz') >
                     |Sz'=-0.50>              |Sz'= 0.50>
 <Sz=-0.50|    0.000000   36.657900i     0.000000    0.000000i
 <Sz= 0.50|   -0.000000    0.000000i    -0.000000  -36.657900i
Mean-Field SOCC =    51.842099374 cm-1
   
**************************************************
State A: Root  1
State B: Root  4
  
Angular momentum components
< B | Lx | A > =    -0.000000000i
< B | Ly | A > =     0.000000000i
< B | Lz | A > =    -0.000000000i
  
Norm of one-particle transition density matrix
||gamma^AB||_total       =  0.803342
||gamma^AB||_symmetrized =  0.598012
||gamma^AB||_anti-symm   =  0.536414
  
Spin-orbit couplings
 Using HF (reference) density for the 2-elec mean-field SOC contribution
KET: S',Sz' (Root   1) =  0.500 0.500
BRA: S ,Sz  (Root   4) =  1.500 0.500
Clebsh-Gordan coefficient: < 0.500, 0.500; 1.000, 0.000| 1.500, 0.500> =  0.816
 Reading 1e-SO integrals
 1e Reduced matrix elements (cm-1)
<S|| Hso(L-) ||S'> =    -0.0000000000     0.0000000000
<S|| Hso(L0) ||S'> =     0.0000000000    -0.0000000000
<S|| Hso(L+) ||S'> =    -0.0000000000    -0.0000000000
 1-elec SOC matrix (cm-1): < B(S,Sz) | Hso(1e) | A(S',Sz') >
                     |Sz'=-0.50>              |Sz'= 0.50>
 <Sz=-1.50|   -0.000000   -0.000000i     0.000000    0.000000i
 <Sz=-0.50|    0.000000   -0.000000i    -0.000000   -0.000000i
 <Sz= 0.50|   -0.000000    0.000000i    -0.000000   -0.000000i
 <Sz= 1.50|    0.000000    0.000000i    -0.000000    0.000000i
1-elec SOCC =     0.000000000 cm-1
 Reading 2e-SOMF integrals
 2e-SOMF Reduced matrix elements (cm-1)
<S|| Hso(L-) ||S'> =     0.0000000000    -0.0000000000
<S|| Hso(L0) ||S'> =     0.0000000000     0.0000000000
<S|| Hso(L+) ||S'> =     0.0000000000     0.0000000000
 2-elec mean-field SOC matrix (cm-1): < B(S,Sz) | Hso(2e-mf) | A(S',Sz') >
                     |Sz'=-0.50>              |Sz'= 0.50>
 <Sz=-1.50|    0.000000    0.000000i     0.000000    0.000000i
 <Sz=-0.50|   -0.000000    0.000000i     0.000000    0.000000i
 <Sz= 0.50|    0.000000   -0.000000i     0.000000    0.000000i
 <Sz= 1.50|    0.000000    0.000000i     0.000000   -0.000000i
 Total mean-field SOC matrix (cm-1): < B(S,Sz) | Hsomf | A(S',Sz') >
                     |Sz'=-0.50>              |Sz'= 0.50>
 <Sz=-1.50|   -0.000000   -0.000000i     0.000000    0.000000i
 <Sz=-0.50|    0.000000   -0.000000i    -0.000000   -0.000000i
 <Sz= 0.50|   -0.000000    0.000000i    -0.000000   -0.000000i
 <Sz= 1.50|    0.000000    0.000000i    -0.000000    0.000000i
Mean-Field SOCC =     0.000000000 cm-1
   
**************************************************
State A: Root  1
State B: Root  5
  
Angular momentum components
< B | Lx | A > =    -0.000000000i
< B | Ly | A > =    -0.000000029i
< B | Lz | A > =    -0.000000000i
  
Norm of one-particle transition density matrix
||gamma^AB||_total       =  0.807625
||gamma^AB||_symmetrized =  0.607873
||gamma^AB||_anti-symm   =  0.531742
  
Spin-orbit couplings
 Using HF (reference) density for the 2-elec mean-field SOC contribution
KET: S',Sz' (Root   1) =  0.500 0.500
BRA: S ,Sz  (Root   5) =  1.500 0.500
Clebsh-Gordan coefficient: < 0.500, 0.500; 1.000, 0.000| 1.500, 0.500> =  0.816
 Reading 1e-SO integrals
 1e Reduced matrix elements (cm-1)
<S|| Hso(L-) ||S'> =    32.5586401954     0.0000000000
<S|| Hso(L0) ||S'> =     0.0000000000     0.0000000000
<S|| Hso(L+) ||S'> =    32.5586401954    -0.0000000000
 1-elec SOC matrix (cm-1): < B(S,Sz) | Hso(1e) | A(S',Sz') >
                     |Sz'=-0.50>              |Sz'= 0.50>
 <Sz=-1.50|   32.558640   -0.000000i     0.000000    0.000000i
 <Sz=-0.50|   -0.000000    0.000000i    18.797740   -0.000000i
 <Sz= 0.50|   18.797740    0.000000i     0.000000    0.000000i
 <Sz= 1.50|    0.000000    0.000000i    32.558640    0.000000i
1-elec SOCC =    53.168036798 cm-1
 Reading 2e-SOMF integrals
 2e-SOMF Reduced matrix elements (cm-1)
<S|| Hso(L-) ||S'> =   -12.5000198469    -0.0000000000
<S|| Hso(L0) ||S'> =     0.0000000000    -0.0000000000
<S|| Hso(L+) ||S'> =   -12.5000198469     0.0000000000
 2-elec mean-field SOC matrix (cm-1): < B(S,Sz) | Hso(2e-mf) | A(S',Sz') >
                     |Sz'=-0.50>              |Sz'= 0.50>
 <Sz=-1.50|  -12.500020    0.000000i     0.000000    0.000000i
 <Sz=-0.50|    0.000000   -0.000000i    -7.216890    0.000000i
 <Sz= 0.50|   -7.216890   -0.000000i    -0.000000   -0.000000i
 <Sz= 1.50|    0.000000    0.000000i   -12.500020   -0.000000i
 Total mean-field SOC matrix (cm-1): < B(S,Sz) | Hsomf | A(S',Sz') >
                     |Sz'=-0.50>              |Sz'= 0.50>
 <Sz=-1.50|   20.058620   -0.000000i     0.000000    0.000000i
 <Sz=-0.50|   -0.000000    0.000000i    11.580850   -0.000000i
 <Sz= 0.50|   11.580850    0.000000i     0.000000    0.000000i
 <Sz= 1.50|    0.000000    0.000000i    20.058620    0.000000i
Mean-Field SOCC =    32.755589865 cm-1
   
**************************************************
State A: Root  1
State B: Root  6
  
Angular momentum components
< B | Lx | A > =     0.244742554i
< B | Ly | A > =    -0.000000000i
< B | Lz | A > =     0.000000000i
  
Norm of one-particle transition density matrix
||gamma^AB||_total       =  0.938189
||gamma^AB||_symmetrized =  0.674722
||gamma^AB||_anti-symm   =  0.651881
  
Spin-orbit couplings
 Using HF (reference) density for the 2-elec mean-field SOC contribution
KET: S',Sz' (Root   1) =  0.500 0.500
BRA: S ,Sz  (Root   6) =  0.500 0.500
Clebsh-Gordan coefficient: < 0.500, 0.500; 1.000, 0.000| 0.500, 0.500> = -0.577
 Reading 1e-SO integrals
 1e Reduced matrix elements (cm-1)
<S|| Hso(L-) ||S'> =    -0.0000000000    47.1861211781
<S|| Hso(L0) ||S'> =     0.0000000000     0.0000000000
<S|| Hso(L+) ||S'> =    -0.0000000000   -47.1861211781
 1-elec SOC matrix (cm-1): < B(S,Sz) | Hso(1e) | A(S',Sz') >
                     |Sz'=-0.50>              |Sz'= 0.50>
 <Sz=-0.50|    0.000000    0.000000i     0.000000   38.527307i
 <Sz= 0.50|   -0.000000   38.527307i    -0.000000   -0.000000i
1-elec SOCC =    54.485839528 cm-1
 Reading 2e-SOMF integrals
 2e-SOMF Reduced matrix elements (cm-1)
<S|| Hso(L-) ||S'> =     0.0000000000   -16.9148046279
<S|| Hso(L0) ||S'> =     0.0000000000    -0.0000000000
<S|| Hso(L+) ||S'> =     0.0000000000    16.9148046279
 2-elec mean-field SOC matrix (cm-1): < B(S,Sz) | Hso(2e-mf) | A(S',Sz') >
                     |Sz'=-0.50>              |Sz'= 0.50>
 <Sz=-0.50|    0.000000   -0.000000i    -0.000000  -13.810880i
 <Sz= 0.50|    0.000000  -13.810880i     0.000000    0.000000i
 Total mean-field SOC matrix (cm-1): < B(S,Sz) | Hsomf | A(S',Sz') >
                     |Sz'=-0.50>              |Sz'= 0.50>
 <Sz=-0.50|    0.000000    0.000000i     0.000000   24.716426i
 <Sz= 0.50|   -0.000000   24.716426i    -0.000000   -0.000000i
Mean-Field SOCC =    34.954305518 cm-1
   
**************************************************
State A: Root  1
State B: Root  7
  
Angular momentum components
< B | Lx | A > =     0.000000000i
< B | Ly | A > =    -0.000000000i
< B | Lz | A > =     0.000000000i
  
Norm of one-particle transition density matrix
||gamma^AB||_total       =  0.783100
||gamma^AB||_symmetrized =  0.554746
||gamma^AB||_anti-symm   =  0.552722
  
Spin-orbit couplings
 Using HF (reference) density for the 2-elec mean-field SOC contribution
KET: S',Sz' (Root   1) =  0.500 0.500
BRA: S ,Sz  (Root   7) =  0.500 0.500
Clebsh-Gordan coefficient: < 0.500, 0.500; 1.000, 0.000| 0.500, 0.500> = -0.577
 Reading 1e-SO integrals
 1e Reduced matrix elements (cm-1)
<S|| Hso(L-) ||S'> =     0.0000000000     0.0000000000
<S|| Hso(L0) ||S'> =     0.0000000000    -0.0000000000
<S|| Hso(L+) ||S'> =     0.0000000000    -0.0000000000
 1-elec SOC matrix (cm-1): < B(S,Sz) | Hso(1e) | A(S',Sz') >
                     |Sz'=-0.50>              |Sz'= 0.50>
 <Sz=-0.50|    0.000000   -0.000000i    -0.000000    0.000000i
 <Sz= 0.50|    0.000000    0.000000i     0.000000    0.000000i
1-elec SOCC =     0.000000000 cm-1
 Reading 2e-SOMF integrals
 2e-SOMF Reduced matrix elements (cm-1)
<S|| Hso(L-) ||S'> =    -0.0000000000    -0.0000000000
<S|| Hso(L0) ||S'> =     0.0000000000     0.0000000000
<S|| Hso(L+) ||S'> =    -0.0000000000     0.0000000000
 2-elec mean-field SOC matrix (cm-1): < B(S,Sz) | Hso(2e-mf) | A(S',Sz') >
                     |Sz'=-0.50>              |Sz'= 0.50>
 <Sz=-0.50|    0.000000    0.000000i     0.000000   -0.000000i
 <Sz= 0.50|   -0.000000   -0.000000i    -0.000000   -0.000000i
 Total mean-field SOC matrix (cm-1): < B(S,Sz) | Hsomf | A(S',Sz') >
                     |Sz'=-0.50>              |Sz'= 0.50>
 <Sz=-0.50|    0.000000   -0.000000i    -0.000000    0.000000i
 <Sz= 0.50|    0.000000    0.000000i     0.000000    0.000000i
Mean-Field SOCC =     0.000000000 cm-1
   
**************************************************
State A: Root  1
State B: Root  8
  
Angular momentum components
< B | Lx | A > =     0.000000000i
< B | Ly | A > =    -0.000000000i
< B | Lz | A > =     0.000000000i
  
Norm of one-particle transition density matrix
||gamma^AB||_total       =  0.803622
||gamma^AB||_symmetrized =  0.570509
||gamma^AB||_anti-symm   =  0.565975
  
Spin-orbit couplings
 Using HF (reference) density for the 2-elec mean-field SOC contribution
KET: S',Sz' (Root   1) =  0.500 0.500
BRA: S ,Sz  (Root   8) =  0.500 0.500
Clebsh-Gordan coefficient: < 0.500, 0.500; 1.000, 0.000| 0.500, 0.500> = -0.577
 Reading 1e-SO integrals
 1e Reduced matrix elements (cm-1)
<S|| Hso(L-) ||S'> =    -0.0000000000     0.0000000000
<S|| Hso(L0) ||S'> =     0.0000000000    -0.0000000000
<S|| Hso(L+) ||S'> =    -0.0000000000    -0.0000000000
 1-elec SOC matrix (cm-1): < B(S,Sz) | Hso(1e) | A(S',Sz') >
                     |Sz'=-0.50>              |Sz'= 0.50>
 <Sz=-0.50|    0.000000   -0.000000i     0.000000    0.000000i
 <Sz= 0.50|   -0.000000    0.000000i    -0.000000    0.000000i
1-elec SOCC =     0.000000000 cm-1
 Reading 2e-SOMF integrals
 2e-SOMF Reduced matrix elements (cm-1)
<S|| Hso(L-) ||S'> =     0.0000000000    -0.0000000000
<S|| Hso(L0) ||S'> =     0.0000000000     0.0000000000
<S|| Hso(L+) ||S'> =     0.0000000000     0.0000000000
 2-elec mean-field SOC matrix (cm-1): < B(S,Sz) | Hso(2e-mf) | A(S',Sz') >
                     |Sz'=-0.50>              |Sz'= 0.50>
 <Sz=-0.50|    0.000000    0.000000i    -0.000000   -0.000000i
 <Sz= 0.50|    0.000000   -0.000000i     0.000000   -0.000000i
 Total mean-field SOC matrix (cm-1): < B(S,Sz) | Hsomf | A(S',Sz') >
                     |Sz'=-0.50>              |Sz'= 0.50>
 <Sz=-0.50|    0.000000   -0.000000i     0.000000    0.000000i
 <Sz= 0.50|   -0.000000    0.000000i    -0.000000    0.000000i
Mean-Field SOCC =     0.000000000 cm-1
   
**************************************************
State A: Root  1
State B: Root  9
  
Angular momentum components
< B | Lx | A > =     0.000000000i
< B | Ly | A > =    -0.389261425i
< B | Lz | A > =     0.000000000i
  
Norm of one-particle transition density matrix
||gamma^AB||_total       =  0.736305
||gamma^AB||_symmetrized =  0.525857
||gamma^AB||_anti-symm   =  0.515383
  
Spin-orbit couplings
 Using HF (reference) density for the 2-elec mean-field SOC contribution
KET: S',Sz' (Root   1) =  0.500 0.500
BRA: S ,Sz  (Root   9) =  0.500 0.500
Clebsh-Gordan coefficient: < 0.500, 0.500; 1.000, 0.000| 0.500, 0.500> = -0.577
 Reading 1e-SO integrals
 1e Reduced matrix elements (cm-1)
<S|| Hso(L-) ||S'> =    34.2665363532    -0.0000000000
<S|| Hso(L0) ||S'> =     0.0000000000    -0.0000000000
<S|| Hso(L+) ||S'> =    34.2665363532     0.0000000000
 1-elec SOC matrix (cm-1): < B(S,Sz) | Hso(1e) | A(S',Sz') >
                     |Sz'=-0.50>              |Sz'= 0.50>
 <Sz=-0.50|    0.000000   -0.000000i   -27.978510   -0.000000i
 <Sz= 0.50|   27.978510   -0.000000i     0.000000    0.000000i
1-elec SOCC =    39.567587975 cm-1
 Reading 2e-SOMF integrals
 2e-SOMF Reduced matrix elements (cm-1)
<S|| Hso(L-) ||S'> =   -13.3507089249     0.0000000000
<S|| Hso(L0) ||S'> =     0.0000000000     0.0000000000
<S|| Hso(L+) ||S'> =   -13.3507089249    -0.0000000000
 2-elec mean-field SOC matrix (cm-1): < B(S,Sz) | Hso(2e-mf) | A(S',Sz') >
                     |Sz'=-0.50>              |Sz'= 0.50>
 <Sz=-0.50|    0.000000    0.000000i    10.900808    0.000000i
 <Sz= 0.50|  -10.900808    0.000000i    -0.000000   -0.000000i
 Total mean-field SOC matrix (cm-1): < B(S,Sz) | Hsomf | A(S',Sz') >
                     |Sz'=-0.50>              |Sz'= 0.50>
 <Sz=-0.50|    0.000000   -0.000000i   -17.077702   -0.000000i
 <Sz= 0.50|   17.077702   -0.000000i     0.000000    0.000000i
Mean-Field SOCC =    24.151517192 cm-1
   
**************************************************
State A: Root  1
State B: Root 10
  
Angular momentum components
< B | Lx | A > =    -0.000000000i
< B | Ly | A > =     0.000000190i
< B | Lz | A > =    -0.000000000i
  
Norm of one-particle transition density matrix
||gamma^AB||_total       =  0.798668
||gamma^AB||_symmetrized =  0.572517
||gamma^AB||_anti-symm   =  0.556861
  
Spin-orbit couplings
 Using HF (reference) density for the 2-elec mean-field SOC contribution
KET: S',Sz' (Root   1) =  0.500 0.500
BRA: S ,Sz  (Root  10) =  1.500 0.500
Clebsh-Gordan coefficient: < 0.500, 0.500; 1.000, 0.000| 1.500, 0.500> =  0.816
 Reading 1e-SO integrals
 1e Reduced matrix elements (cm-1)
<S|| Hso(L-) ||S'> =   -52.7469703372    -0.0000000000
<S|| Hso(L0) ||S'> =     0.0000000000    -0.0000000000
<S|| Hso(L+) ||S'> =   -52.7469703372     0.0000000000
 1-elec SOC matrix (cm-1): < B(S,Sz) | Hso(1e) | A(S',Sz') >
                     |Sz'=-0.50>              |Sz'= 0.50>
 <Sz=-1.50|  -52.746970    0.000000i     0.000000    0.000000i
 <Sz=-0.50|    0.000000   -0.000000i   -30.453478    0.000000i
 <Sz= 0.50|  -30.453478   -0.000000i    -0.000000   -0.000000i
 <Sz= 1.50|    0.000000    0.000000i   -52.746970   -0.000000i
1-elec SOCC =    86.135441869 cm-1
 Reading 2e-SOMF integrals
 2e-SOMF Reduced matrix elements (cm-1)
<S|| Hso(L-) ||S'> =    20.5849164481     0.0000000000
<S|| Hso(L0) ||S'> =     0.0000000000     0.0000000000
<S|| Hso(L+) ||S'> =    20.5849164481    -0.0000000000
 2-elec mean-field SOC matrix (cm-1): < B(S,Sz) | Hso(2e-mf) | A(S',Sz') >
                     |Sz'=-0.50>              |Sz'= 0.50>
 <Sz=-1.50|   20.584916   -0.000000i     0.000000    0.000000i
 <Sz=-0.50|   -0.000000    0.000000i    11.884707   -0.000000i
 <Sz= 0.50|   11.884707    0.000000i     0.000000    0.000000i
 <Sz= 1.50|    0.000000    0.000000i    20.584916    0.000000i
 Total mean-field SOC matrix (cm-1): < B(S,Sz) | Hsomf | A(S',Sz') >
                     |Sz'=-0.50>              |Sz'= 0.50>
 <Sz=-1.50|  -32.162054    0.000000i     0.000000    0.000000i
 <Sz=-0.50|    0.000000   -0.000000i   -18.568770    0.000000i
 <Sz= 0.50|  -18.568770   -0.000000i    -0.000000   -0.000000i
 <Sz= 1.50|    0.000000    0.000000i   -32.162054   -0.000000i
Mean-Field SOCC =    52.520414072 cm-1
   
**************************************************
State A: Root  2
State B: Root  1
  
Angular momentum components
< B | Lx | A > =     0.952435974i
< B | Ly | A > =    -0.000000000i
< B | Lz | A > =     0.000000000i
  
Norm of one-particle transition density matrix
||gamma^AB||_total       =  0.993381
||gamma^AB||_symmetrized =  0.702410
||gamma^AB||_anti-symm   =  0.702443
  
Spin-orbit couplings
 Using HF (reference) density for the 2-elec mean-field SOC contribution
KET: S',Sz' (Root   2) =  0.500 0.500
BRA: S ,Sz  (Root   1) =  0.500 0.500
Clebsh-Gordan coefficient: < 0.500, 0.500; 1.000, 0.000| 0.500, 0.500> = -0.577
 Reading 1e-SO integrals
 1e Reduced matrix elements (cm-1)
<S|| Hso(L-) ||S'> =     0.0000000000   -87.9616751092
<S|| Hso(L0) ||S'> =     0.0000000000     0.0000000000
<S|| Hso(L+) ||S'> =     0.0000000000    87.9616751092
 1-elec SOC matrix (cm-1): < B(S,Sz) | Hso(1e) | A(S',Sz') >
                     |Sz'=-0.50>              |Sz'= 0.50>
 <Sz=-0.50|    0.000000    0.000000i    -0.000000  -71.820407i
 <Sz= 0.50|    0.000000  -71.820407i     0.000000   -0.000000i
1-elec SOCC =   101.569393605 cm-1
 Reading 2e-SOMF integrals
 2e-SOMF Reduced matrix elements (cm-1)
<S|| Hso(L-) ||S'> =    -0.0000000000    34.7349766480
<S|| Hso(L0) ||S'> =     0.0000000000    -0.0000000000
<S|| Hso(L+) ||S'> =    -0.0000000000   -34.7349766480
 2-elec mean-field SOC matrix (cm-1): < B(S,Sz) | Hso(2e-mf) | A(S',Sz') >
                     |Sz'=-0.50>              |Sz'= 0.50>
 <Sz=-0.50|    0.000000   -0.000000i     0.000000   28.360990i
 <Sz= 0.50|   -0.000000   28.360990i    -0.000000    0.000000i
 Total mean-field SOC matrix (cm-1): < B(S,Sz) | Hsomf | A(S',Sz') >
                     |Sz'=-0.50>              |Sz'= 0.50>
 <Sz=-0.50|    0.000000    0.000000i    -0.000000  -43.459417i
 <Sz= 0.50|    0.000000  -43.459417i     0.000000   -0.000000i
Mean-Field SOCC =    61.460897369 cm-1
   
**************************************************
State A: Root  2
State B: Root  3
  
Angular momentum components
< B | Lx | A > =     0.000000000i
< B | Ly | A > =     0.860164556i
< B | Lz | A > =    -0.000000000i
  
Norm of one-particle transition density matrix
||gamma^AB||_total       =  0.979662
||gamma^AB||_symmetrized =  0.695665
||gamma^AB||_anti-symm   =  0.689773
  
Spin-orbit couplings
 Using HF (reference) density for the 2-elec mean-field SOC contribution
KET: S',Sz' (Root   2) =  0.500 0.500
BRA: S ,Sz  (Root   3) =  0.500 0.500
Clebsh-Gordan coefficient: < 0.500, 0.500; 1.000, 0.000| 0.500, 0.500> = -0.577
 Reading 1e-SO integrals
 1e Reduced matrix elements (cm-1)
<S|| Hso(L-) ||S'> =   -63.0050131585    -0.0000000000
<S|| Hso(L0) ||S'> =     0.0000000000    -0.0000000000
<S|| Hso(L+) ||S'> =   -63.0050131585     0.0000000000
 1-elec SOC matrix (cm-1): < B(S,Sz) | Hso(1e) | A(S',Sz') >
                     |Sz'=-0.50>              |Sz'= 0.50>
 <Sz=-0.50|    0.000000   -0.000000i    51.443378   -0.000000i
 <Sz= 0.50|  -51.443378   -0.000000i    -0.000000    0.000000i
1-elec SOCC =    72.751922615 cm-1
 Reading 2e-SOMF integrals
 2e-SOMF Reduced matrix elements (cm-1)
<S|| Hso(L-) ||S'> =    27.5053106766     0.0000000000
<S|| Hso(L0) ||S'> =     0.0000000000     0.0000000000
<S|| Hso(L+) ||S'> =    27.5053106766    -0.0000000000
 2-elec mean-field SOC matrix (cm-1): < B(S,Sz) | Hso(2e-mf) | A(S',Sz') >
                     |Sz'=-0.50>              |Sz'= 0.50>
 <Sz=-0.50|    0.000000    0.000000i   -22.457992    0.000000i
 <Sz= 0.50|   22.457992    0.000000i     0.000000   -0.000000i
 Total mean-field SOC matrix (cm-1): < B(S,Sz) | Hsomf | A(S',Sz') >
                     |Sz'=-0.50>              |Sz'= 0.50>
 <Sz=-0.50|    0.000000   -0.000000i    28.985386   -0.000000i
 <Sz= 0.50|  -28.985386   -0.000000i    -0.000000    0.000000i
Mean-Field SOCC =    40.991525568 cm-1
   
**************************************************
State A: Root  2
State B: Root  4
  
Angular momentum components
< B | Lx | A > =     0.000000000i
< B | Ly | A > =    -0.000000000i
< B | Lz | A > =     0.000000000i
  
Norm of one-particle transition density matrix
||gamma^AB||_total       =  0.783047
||gamma^AB||_symmetrized =  0.566404
||gamma^AB||_anti-symm   =  0.540693
  
Spin-orbit couplings
 Using HF (reference) density for the 2-elec mean-field SOC contribution
KET: S',Sz' (Root   2) =  0.500 0.500
BRA: S ,Sz  (Root   4) =  1.500 0.500
Clebsh-Gordan coefficient: < 0.500, 0.500; 1.000, 0.000| 1.500, 0.500> =  0.816
 Reading 1e-SO integrals
 1e Reduced matrix elements (cm-1)
<S|| Hso(L-) ||S'> =    -0.0000000000   -40.8520487917
<S|| Hso(L0) ||S'> =     0.0000000000     0.0000000000
<S|| Hso(L+) ||S'> =    -0.0000000000    40.8520487917
 1-elec SOC matrix (cm-1): < B(S,Sz) | Hso(1e) | A(S',Sz') >
                     |Sz'=-0.50>              |Sz'= 0.50>
 <Sz=-1.50|   -0.000000   40.852049i     0.000000    0.000000i
 <Sz=-0.50|    0.000000    0.000000i    -0.000000   23.585941i
 <Sz= 0.50|   -0.000000  -23.585941i    -0.000000    0.000000i
 <Sz= 1.50|    0.000000    0.000000i    -0.000000  -40.852049i
1-elec SOCC =    66.711116325 cm-1
 Reading 2e-SOMF integrals
 2e-SOMF Reduced matrix elements (cm-1)
<S|| Hso(L-) ||S'> =     0.0000000000    14.6476726838
<S|| Hso(L0) ||S'> =     0.0000000000    -0.0000000000
<S|| Hso(L+) ||S'> =     0.0000000000   -14.6476726838
 2-elec mean-field SOC matrix (cm-1): < B(S,Sz) | Hso(2e-mf) | A(S',Sz') >
                     |Sz'=-0.50>              |Sz'= 0.50>
 <Sz=-1.50|    0.000000  -14.647673i     0.000000    0.000000i
 <Sz=-0.50|   -0.000000   -0.000000i     0.000000   -8.456838i
 <Sz= 0.50|    0.000000    8.456838i     0.000000   -0.000000i
 <Sz= 1.50|    0.000000    0.000000i     0.000000   14.647673i
 Total mean-field SOC matrix (cm-1): < B(S,Sz) | Hsomf | A(S',Sz') >
                     |Sz'=-0.50>              |Sz'= 0.50>
 <Sz=-1.50|   -0.000000   26.204376i     0.000000    0.000000i
 <Sz=-0.50|    0.000000    0.000000i    -0.000000   15.129104i
 <Sz= 0.50|   -0.000000  -15.129104i    -0.000000    0.000000i
 <Sz= 1.50|    0.000000    0.000000i    -0.000000  -26.204376i
Mean-Field SOCC =    42.791566995 cm-1
   
**************************************************
State A: Root  2
State B: Root  5
  
Angular momentum components
< B | Lx | A > =     0.000000000i
< B | Ly | A > =     0.000000000i
< B | Lz | A > =     0.000000003i
  
Norm of one-particle transition density matrix
||gamma^AB||_total       =  0.704192
||gamma^AB||_symmetrized =  0.502357
||gamma^AB||_anti-symm   =  0.493482
  
Spin-orbit couplings
 Using HF (reference) density for the 2-elec mean-field SOC contribution
KET: S',Sz' (Root   2) =  0.500 0.500
BRA: S ,Sz  (Root   5) =  1.500 0.500
Clebsh-Gordan coefficient: < 0.500, 0.500; 1.000, 0.000| 1.500, 0.500> =  0.816
 Reading 1e-SO integrals
 1e Reduced matrix elements (cm-1)
<S|| Hso(L-) ||S'> =    -0.0000000000     0.0000000000
<S|| Hso(L0) ||S'> =     0.0000000000    79.9806398748
<S|| Hso(L+) ||S'> =    -0.0000000000    -0.0000000000
 1-elec SOC matrix (cm-1): < B(S,Sz) | Hso(1e) | A(S',Sz') >
                     |Sz'=-0.50>              |Sz'= 0.50>
 <Sz=-1.50|   -0.000000   -0.000000i     0.000000    0.000000i
 <Sz=-0.50|    0.000000   65.303919i    -0.000000   -0.000000i
 <Sz= 0.50|   -0.000000    0.000000i    -0.000000   65.303919i
 <Sz= 1.50|    0.000000    0.000000i    -0.000000    0.000000i
1-elec SOCC =    92.353687923 cm-1
 Reading 2e-SOMF integrals
 2e-SOMF Reduced matrix elements (cm-1)
<S|| Hso(L-) ||S'> =     0.0000000000    -0.0000000000
<S|| Hso(L0) ||S'> =     0.0000000000   -27.8084475052
<S|| Hso(L+) ||S'> =     0.0000000000     0.0000000000
 2-elec mean-field SOC matrix (cm-1): < B(S,Sz) | Hso(2e-mf) | A(S',Sz') >
                     |Sz'=-0.50>              |Sz'= 0.50>
 <Sz=-1.50|    0.000000    0.000000i     0.000000    0.000000i
 <Sz=-0.50|   -0.000000  -22.705502i     0.000000    0.000000i
 <Sz= 0.50|    0.000000   -0.000000i     0.000000  -22.705502i
 <Sz= 1.50|    0.000000    0.000000i     0.000000   -0.000000i
 Total mean-field SOC matrix (cm-1): < B(S,Sz) | Hsomf | A(S',Sz') >
                     |Sz'=-0.50>              |Sz'= 0.50>
 <Sz=-1.50|   -0.000000   -0.000000i     0.000000    0.000000i
 <Sz=-0.50|    0.000000   42.598417i    -0.000000   -0.000000i
 <Sz= 0.50|   -0.000000    0.000000i    -0.000000   42.598417i
 <Sz= 1.50|    0.000000    0.000000i    -0.000000    0.000000i
Mean-Field SOCC =    60.243258618 cm-1
   
**************************************************
State A: Root  2
State B: Root  6
  
Angular momentum components
< B | Lx | A > =     0.000000000i
< B | Ly | A > =     0.000000000i
< B | Lz | A > =     0.000000000i
  
Norm of one-particle transition density matrix
||gamma^AB||_total       =  0.308610
||gamma^AB||_symmetrized =  0.220904
||gamma^AB||_anti-symm   =  0.215504
  
Spin-orbit couplings
 Using HF (reference) density for the 2-elec mean-field SOC contribution
KET: S',Sz' (Root   2) =  0.500 0.500
BRA: S ,Sz  (Root   6) =  0.500 0.500
Clebsh-Gordan coefficient: < 0.500, 0.500; 1.000, 0.000| 0.500, 0.500> = -0.577
 Reading 1e-SO integrals
 1e Reduced matrix elements (cm-1)
<S|| Hso(L-) ||S'> =    -0.0000000000     0.0000000000
<S|| Hso(L0) ||S'> =     0.0000000000    -0.0000000000
<S|| Hso(L+) ||S'> =    -0.0000000000    -0.0000000000
 1-elec SOC matrix (cm-1): < B(S,Sz) | Hso(1e) | A(S',Sz') >
                     |Sz'=-0.50>              |Sz'= 0.50>
 <Sz=-0.50|    0.000000   -0.000000i     0.000000    0.000000i
 <Sz= 0.50|   -0.000000    0.000000i    -0.000000    0.000000i
1-elec SOCC =     0.000000000 cm-1
 Reading 2e-SOMF integrals
 2e-SOMF Reduced matrix elements (cm-1)
<S|| Hso(L-) ||S'> =     0.0000000000    -0.0000000000
<S|| Hso(L0) ||S'> =     0.0000000000     0.0000000000
<S|| Hso(L+) ||S'> =     0.0000000000     0.0000000000
 2-elec mean-field SOC matrix (cm-1): < B(S,Sz) | Hso(2e-mf) | A(S',Sz') >
                     |Sz'=-0.50>              |Sz'= 0.50>
 <Sz=-0.50|    0.000000    0.000000i    -0.000000   -0.000000i
 <Sz= 0.50|    0.000000   -0.000000i     0.000000   -0.000000i
 Total mean-field SOC matrix (cm-1): < B(S,Sz) | Hsomf | A(S',Sz') >
                     |Sz'=-0.50>              |Sz'= 0.50>
 <Sz=-0.50|    0.000000   -0.000000i     0.000000    0.000000i
 <Sz= 0.50|   -0.000000    0.000000i    -0.000000    0.000000i
Mean-Field SOCC =     0.000000000 cm-1
   
**************************************************
State A: Root  2
State B: Root  7
  
Angular momentum components
< B | Lx | A > =    -0.361447715i
< B | Ly | A > =    -0.000000000i
< B | Lz | A > =     0.000000000i
  
Norm of one-particle transition density matrix
||gamma^AB||_total       =  0.941762
||gamma^AB||_symmetrized =  0.651061
||gamma^AB||_anti-symm   =  0.680467
  
Spin-orbit couplings
 Using HF (reference) density for the 2-elec mean-field SOC contribution
KET: S',Sz' (Root   2) =  0.500 0.500
BRA: S ,Sz  (Root   7) =  0.500 0.500
Clebsh-Gordan coefficient: < 0.500, 0.500; 1.000, 0.000| 0.500, 0.500> = -0.577
 Reading 1e-SO integrals
 1e Reduced matrix elements (cm-1)
<S|| Hso(L-) ||S'> =    -0.0000000000    13.5993708099
<S|| Hso(L0) ||S'> =     0.0000000000     0.0000000000
<S|| Hso(L+) ||S'> =    -0.0000000000   -13.5993708099
 1-elec SOC matrix (cm-1): < B(S,Sz) | Hso(1e) | A(S',Sz') >
                     |Sz'=-0.50>              |Sz'= 0.50>
 <Sz=-0.50|    0.000000    0.000000i     0.000000   11.103840i
 <Sz= 0.50|   -0.000000   11.103840i    -0.000000   -0.000000i
1-elec SOCC =    15.703200796 cm-1
 Reading 2e-SOMF integrals
 2e-SOMF Reduced matrix elements (cm-1)
<S|| Hso(L-) ||S'> =     0.0000000000    -5.0368359783
<S|| Hso(L0) ||S'> =     0.0000000000    -0.0000000000
<S|| Hso(L+) ||S'> =     0.0000000000     5.0368359783
 2-elec mean-field SOC matrix (cm-1): < B(S,Sz) | Hso(2e-mf) | A(S',Sz') >
                     |Sz'=-0.50>              |Sz'= 0.50>
 <Sz=-0.50|    0.000000   -0.000000i    -0.000000   -4.112559i
 <Sz= 0.50|    0.000000   -4.112559i     0.000000    0.000000i
 Total mean-field SOC matrix (cm-1): < B(S,Sz) | Hsomf | A(S',Sz') >
                     |Sz'=-0.50>              |Sz'= 0.50>
 <Sz=-0.50|    0.000000    0.000000i     0.000000    6.991280i
 <Sz= 0.50|   -0.000000    6.991280i    -0.000000   -0.000000i
Mean-Field SOCC =     9.887163580 cm-1
   
**************************************************
State A: Root  2
State B: Root  8
  
Angular momentum components
< B | Lx | A > =     0.059239982i
< B | Ly | A > =    -0.000000000i
< B | Lz | A > =     0.000000000i
  
Norm of one-particle transition density matrix
||gamma^AB||_total       =  0.564709
||gamma^AB||_symmetrized =  0.406132
||gamma^AB||_anti-symm   =  0.392369
  
Spin-orbit couplings
 Using HF (reference) density for the 2-elec mean-field SOC contribution
KET: S',Sz' (Root   2) =  0.500 0.500
BRA: S ,Sz  (Root   8) =  0.500 0.500
Clebsh-Gordan coefficient: < 0.500, 0.500; 1.000, 0.000| 0.500, 0.500> = -0.577
 Reading 1e-SO integrals
 1e Reduced matrix elements (cm-1)
<S|| Hso(L-) ||S'> =    -0.0000000000    39.8115677429
<S|| Hso(L0) ||S'> =     0.0000000000     0.0000000000
<S|| Hso(L+) ||S'> =    -0.0000000000   -39.8115677429
 1-elec SOC matrix (cm-1): < B(S,Sz) | Hso(1e) | A(S',Sz') >
                     |Sz'=-0.50>              |Sz'= 0.50>
 <Sz=-0.50|    0.000000    0.000000i     0.000000   32.506009i
 <Sz= 0.50|   -0.000000   32.506009i    -0.000000   -0.000000i
1-elec SOCC =    45.970438706 cm-1
 Reading 2e-SOMF integrals
 2e-SOMF Reduced matrix elements (cm-1)
<S|| Hso(L-) ||S'> =     0.0000000000   -14.3013523434
<S|| Hso(L0) ||S'> =     0.0000000000    -0.0000000000
<S|| Hso(L+) ||S'> =     0.0000000000    14.3013523434
 2-elec mean-field SOC matrix (cm-1): < B(S,Sz) | Hso(2e-mf) | A(S',Sz') >
                     |Sz'=-0.50>              |Sz'= 0.50>
 <Sz=-0.50|    0.000000   -0.000000i    -0.000000  -11.677005i
 <Sz= 0.50|    0.000000  -11.677005i     0.000000    0.000000i
 Total mean-field SOC matrix (cm-1): < B(S,Sz) | Hsomf | A(S',Sz') >
                     |Sz'=-0.50>              |Sz'= 0.50>
 <Sz=-0.50|    0.000000    0.000000i     0.000000   20.829004i
 <Sz= 0.50|   -0.000000   20.829004i    -0.000000   -0.000000i
Mean-Field SOCC =    29.456659456 cm-1
   
**************************************************
State A: Root  2
State B: Root  9
  
Angular momentum components
< B | Lx | A > =    -0.000000000i
< B | Ly | A > =     0.000000000i
< B | Lz | A > =     0.537978176i
  
Norm of one-particle transition density matrix
||gamma^AB||_total       =  0.917257
||gamma^AB||_symmetrized =  0.643065
||gamma^AB||_anti-symm   =  0.654086
  
Spin-orbit couplings
 Using HF (reference) density for the 2-elec mean-field SOC contribution
KET: S',Sz' (Root   2) =  0.500 0.500
BRA: S ,Sz  (Root   9) =  0.500 0.500
Clebsh-Gordan coefficient: < 0.500, 0.500; 1.000, 0.000| 0.500, 0.500> = -0.577
 Reading 1e-SO integrals
 1e Reduced matrix elements (cm-1)
<S|| Hso(L-) ||S'> =    -0.0000000000    -0.0000000000
<S|| Hso(L0) ||S'> =     0.0000000000    13.3568582848
<S|| Hso(L+) ||S'> =    -0.0000000000     0.0000000000
 1-elec SOC matrix (cm-1): < B(S,Sz) | Hso(1e) | A(S',Sz') >
                     |Sz'=-0.50>              |Sz'= 0.50>
 <Sz=-0.50|    0.000000    7.711586i     0.000000   -0.000000i
 <Sz= 0.50|   -0.000000   -0.000000i    -0.000000   -7.711586i
1-elec SOCC =    10.905829122 cm-1
 Reading 2e-SOMF integrals
 2e-SOMF Reduced matrix elements (cm-1)
<S|| Hso(L-) ||S'> =     0.0000000000     0.0000000000
<S|| Hso(L0) ||S'> =     0.0000000000    -4.7201746939
<S|| Hso(L+) ||S'> =     0.0000000000    -0.0000000000
 2-elec mean-field SOC matrix (cm-1): < B(S,Sz) | Hso(2e-mf) | A(S',Sz') >
                     |Sz'=-0.50>              |Sz'= 0.50>
 <Sz=-0.50|    0.000000   -2.725194i    -0.000000    0.000000i
 <Sz= 0.50|    0.000000    0.000000i     0.000000    2.725194i
 Total mean-field SOC matrix (cm-1): < B(S,Sz) | Hsomf | A(S',Sz') >
                     |Sz'=-0.50>              |Sz'= 0.50>
 <Sz=-0.50|    0.000000    4.986392i     0.000000   -0.000000i
 <Sz= 0.50|   -0.000000   -0.000000i    -0.000000   -4.986392i
Mean-Field SOCC =     7.051822623 cm-1
   
**************************************************
State A: Root  2
State B: Root 10
  
Angular momentum components
< B | Lx | A > =    -0.000000000i
< B | Ly | A > =     0.000000000i
< B | Lz | A > =    -0.000000001i
  
Norm of one-particle transition density matrix
||gamma^AB||_total       =  0.381776
||gamma^AB||_symmetrized =  0.272215
||gamma^AB||_anti-symm   =  0.267678
  
Spin-orbit couplings
 Using HF (reference) density for the 2-elec mean-field SOC contribution
KET: S',Sz' (Root   2) =  0.500 0.500
BRA: S ,Sz  (Root  10) =  1.500 0.500
Clebsh-Gordan coefficient: < 0.500, 0.500; 1.000, 0.000| 1.500, 0.500> =  0.816
 Reading 1e-SO integrals
 1e Reduced matrix elements (cm-1)
<S|| Hso(L-) ||S'> =     0.0000000000    -0.0000000000
<S|| Hso(L0) ||S'> =     0.0000000000   -41.4321258239
<S|| Hso(L+) ||S'> =     0.0000000000     0.0000000000
 1-elec SOC matrix (cm-1): < B(S,Sz) | Hso(1e) | A(S',Sz') >
                     |Sz'=-0.50>              |Sz'= 0.50>
 <Sz=-1.50|    0.000000    0.000000i     0.000000    0.000000i
 <Sz=-0.50|   -0.000000  -33.829189i     0.000000    0.000000i
 <Sz= 0.50|    0.000000   -0.000000i     0.000000  -33.829189i
 <Sz= 1.50|    0.000000    0.000000i     0.000000   -0.000000i
1-elec SOCC =    47.841697995 cm-1
 Reading 2e-SOMF integrals
 2e-SOMF Reduced matrix elements (cm-1)
<S|| Hso(L-) ||S'> =    -0.0000000000     0.0000000000
<S|| Hso(L0) ||S'> =     0.0000000000    14.3386290295
<S|| Hso(L+) ||S'> =    -0.0000000000    -0.0000000000
 2-elec mean-field SOC matrix (cm-1): < B(S,Sz) | Hso(2e-mf) | A(S',Sz') >
                     |Sz'=-0.50>              |Sz'= 0.50>
 <Sz=-1.50|   -0.000000   -0.000000i     0.000000    0.000000i
 <Sz=-0.50|    0.000000   11.707442i    -0.000000   -0.000000i
 <Sz= 0.50|   -0.000000    0.000000i    -0.000000   11.707442i
 <Sz= 1.50|    0.000000    0.000000i    -0.000000    0.000000i
 Total mean-field SOC matrix (cm-1): < B(S,Sz) | Hsomf | A(S',Sz') >
                     |Sz'=-0.50>              |Sz'= 0.50>
 <Sz=-1.50|    0.000000    0.000000i     0.000000    0.000000i
 <Sz=-0.50|   -0.000000  -22.121747i     0.000000    0.000000i
 <Sz= 0.50|    0.000000   -0.000000i     0.000000  -22.121747i
 <Sz= 1.50|    0.000000    0.000000i     0.000000   -0.000000i
Mean-Field SOCC =    31.284875335 cm-1
   
**************************************************
State A: Root  3
State B: Root  1
  
Angular momentum components
< B | Lx | A > =     0.000000000i
< B | Ly | A > =    -0.000000000i
< B | Lz | A > =    -0.906225562i
  
Norm of one-particle transition density matrix
||gamma^AB||_total       =  0.981084
||gamma^AB||_symmetrized =  0.696713
||gamma^AB||_anti-symm   =  0.690737
  
Spin-orbit couplings
 Using HF (reference) density for the 2-elec mean-field SOC contribution
KET: S',Sz' (Root   3) =  0.500 0.500
BRA: S ,Sz  (Root   1) =  0.500 0.500
Clebsh-Gordan coefficient: < 0.500, 0.500; 1.000, 0.000| 0.500, 0.500> = -0.577
 Reading 1e-SO integrals
 1e Reduced matrix elements (cm-1)
<S|| Hso(L-) ||S'> =     0.0000000000    -0.0000000000
<S|| Hso(L0) ||S'> =     0.0000000000  -102.9388781977
<S|| Hso(L+) ||S'> =     0.0000000000     0.0000000000
 1-elec SOC matrix (cm-1): < B(S,Sz) | Hso(1e) | A(S',Sz') >
                     |Sz'=-0.50>              |Sz'= 0.50>
 <Sz=-0.50|    0.000000  -59.431789i    -0.000000   -0.000000i
 <Sz= 0.50|    0.000000   -0.000000i     0.000000   59.431789i
1-elec SOCC =    84.049242093 cm-1
 Reading 2e-SOMF integrals
 2e-SOMF Reduced matrix elements (cm-1)
<S|| Hso(L-) ||S'> =    -0.0000000000     0.0000000000
<S|| Hso(L0) ||S'> =     0.0000000000    39.4455328674
<S|| Hso(L+) ||S'> =    -0.0000000000    -0.0000000000
 2-elec mean-field SOC matrix (cm-1): < B(S,Sz) | Hso(2e-mf) | A(S',Sz') >
                     |Sz'=-0.50>              |Sz'= 0.50>
 <Sz=-0.50|    0.000000   22.773889i     0.000000    0.000000i
 <Sz= 0.50|   -0.000000    0.000000i    -0.000000  -22.773889i
 Total mean-field SOC matrix (cm-1): < B(S,Sz) | Hsomf | A(S',Sz') >
                     |Sz'=-0.50>              |Sz'= 0.50>
 <Sz=-0.50|    0.000000  -36.657900i    -0.000000   -0.000000i
 <Sz= 0.50|    0.000000   -0.000000i     0.000000   36.657900i
Mean-Field SOCC =    51.842099374 cm-1
   
**************************************************
State A: Root  3
State B: Root  2
  
Angular momentum components
< B | Lx | A > =    -0.000000000i
< B | Ly | A > =    -0.860164556i
< B | Lz | A > =     0.000000000i
  
Norm of one-particle transition density matrix
||gamma^AB||_total       =  0.979662
||gamma^AB||_symmetrized =  0.695665
||gamma^AB||_anti-symm   =  0.689773
  
Spin-orbit couplings
 Using HF (reference) density for the 2-elec mean-field SOC contribution
KET: S',Sz' (Root   3) =  0.500 0.500
BRA: S ,Sz  (Root   2) =  0.500 0.500
Clebsh-Gordan coefficient: < 0.500, 0.500; 1.000, 0.000| 0.500, 0.500> = -0.577
 Reading 1e-SO integrals
 1e Reduced matrix elements (cm-1)
[...]
||gamma^AB||_anti-symm   =  0.581860
  
Spin-orbit couplings
 Using HF (reference) density for the 2-elec mean-field SOC contribution
KET: S',Sz' (Root  10) =  1.500 0.500
BRA: S ,Sz  (Root   4) =  1.500 0.500
Clebsh-Gordan coefficient: < 1.500, 0.500; 1.000, 0.000| 1.500, 0.500> =  0.258
 Reading 1e-SO integrals
 1e Reduced matrix elements (cm-1)
<S|| Hso(L-) ||S'> =    71.2830388352    -0.0000000000
<S|| Hso(L0) ||S'> =     0.0000000000     0.0000000000
<S|| Hso(L+) ||S'> =    71.2830388352     0.0000000000
 1-elec SOC matrix (cm-1): < B(S,Sz) | Hso(1e) | A(S',Sz') >
                     |Sz'=-1.50>              |Sz'=-0.50>              |Sz'= 0.50>              |Sz'= 1.50>
 <Sz=-1.50|    0.000000   -0.000000i    45.083352    0.000000i     0.000000    0.000000i     0.000000    0.000000i
 <Sz=-0.50|  -45.083352    0.000000i     0.000000   -0.000000i    52.057771    0.000000i     0.000000    0.000000i
 <Sz= 0.50|    0.000000    0.000000i   -52.057771    0.000000i     0.000000    0.000000i    45.083352    0.000000i
 <Sz= 1.50|    0.000000    0.000000i     0.000000    0.000000i   -45.083352    0.000000i     0.000000    0.000000i
1-elec SOCC =   116.404714974 cm-1
 Reading 2e-SOMF integrals
 2e-SOMF Reduced matrix elements (cm-1)
<S|| Hso(L-) ||S'> =   -29.2969702735     0.0000000000
<S|| Hso(L0) ||S'> =     0.0000000000    -0.0000000000
<S|| Hso(L+) ||S'> =   -29.2969702735    -0.0000000000
 2-elec mean-field SOC matrix (cm-1): < B(S,Sz) | Hso(2e-mf) | A(S',Sz') >
                     |Sz'=-1.50>              |Sz'=-0.50>              |Sz'= 0.50>              |Sz'= 1.50>
 <Sz=-1.50|    0.000000    0.000000i   -18.529031   -0.000000i     0.000000    0.000000i     0.000000    0.000000i
 <Sz=-0.50|   18.529031   -0.000000i     0.000000    0.000000i   -21.395482   -0.000000i     0.000000    0.000000i
 <Sz= 0.50|    0.000000    0.000000i    21.395482   -0.000000i     0.000000   -0.000000i   -18.529031   -0.000000i
 <Sz= 1.50|    0.000000    0.000000i     0.000000    0.000000i    18.529031   -0.000000i     0.000000   -0.000000i
 Total mean-field SOC matrix (cm-1): < B(S,Sz) | Hsomf | A(S',Sz') >
                     |Sz'=-1.50>              |Sz'=-0.50>              |Sz'= 0.50>              |Sz'= 1.50>
 <Sz=-1.50|    0.000000   -0.000000i    26.554321    0.000000i     0.000000    0.000000i     0.000000    0.000000i
 <Sz=-0.50|  -26.554321    0.000000i     0.000000   -0.000000i    30.662289    0.000000i     0.000000    0.000000i
 <Sz= 0.50|    0.000000    0.000000i   -30.662289    0.000000i     0.000000    0.000000i    26.554321    0.000000i
 <Sz= 1.50|    0.000000    0.000000i     0.000000    0.000000i   -26.554321    0.000000i     0.000000    0.000000i
Mean-Field SOCC =    68.562962854 cm-1
   
**************************************************
State A: Root 10
State B: Root  5
  
Angular momentum components
< B | Lx | A > =     0.000000000i
< B | Ly | A > =    -0.000000000i
< B | Lz | A > =    -0.000000000i
  
Norm of one-particle transition density matrix
||gamma^AB||_total       =  0.617363
||gamma^AB||_symmetrized =  0.608975
||gamma^AB||_anti-symm   =  0.101420
  
Spin-orbit couplings
 Using HF (reference) density for the 2-elec mean-field SOC contribution
KET: S',Sz' (Root  10) =  1.500 0.500
BRA: S ,Sz  (Root   5) =  1.500 0.500
Clebsh-Gordan coefficient: < 1.500, 0.500; 1.000, 0.000| 1.500, 0.500> =  0.258
 Reading 1e-SO integrals
 1e Reduced matrix elements (cm-1)
<S|| Hso(L-) ||S'> =    -0.0000000000     0.0000000000
<S|| Hso(L0) ||S'> =     0.0000000000     0.0000000000
<S|| Hso(L+) ||S'> =    -0.0000000000    -0.0000000000
 1-elec SOC matrix (cm-1): < B(S,Sz) | Hso(1e) | A(S',Sz') >
                     |Sz'=-1.50>              |Sz'=-0.50>              |Sz'= 0.50>              |Sz'= 1.50>
 <Sz=-1.50|    0.000000   -0.000000i    -0.000000   -0.000000i     0.000000    0.000000i     0.000000    0.000000i
 <Sz=-0.50|    0.000000   -0.000000i     0.000000   -0.000000i    -0.000000   -0.000000i     0.000000    0.000000i
 <Sz= 0.50|    0.000000    0.000000i     0.000000   -0.000000i     0.000000    0.000000i    -0.000000   -0.000000i
 <Sz= 1.50|    0.000000    0.000000i     0.000000    0.000000i     0.000000   -0.000000i     0.000000    0.000000i
1-elec SOCC =     0.000000000 cm-1
 Reading 2e-SOMF integrals
 2e-SOMF Reduced matrix elements (cm-1)
<S|| Hso(L-) ||S'> =     0.0000000000    -0.0000000000
<S|| Hso(L0) ||S'> =     0.0000000000    -0.0000000000
<S|| Hso(L+) ||S'> =     0.0000000000     0.0000000000
 2-elec mean-field SOC matrix (cm-1): < B(S,Sz) | Hso(2e-mf) | A(S',Sz') >
                     |Sz'=-1.50>              |Sz'=-0.50>              |Sz'= 0.50>              |Sz'= 1.50>
 <Sz=-1.50|    0.000000    0.000000i     0.000000    0.000000i     0.000000    0.000000i     0.000000    0.000000i
 <Sz=-0.50|   -0.000000    0.000000i     0.000000    0.000000i     0.000000    0.000000i     0.000000    0.000000i
 <Sz= 0.50|    0.000000    0.000000i    -0.000000    0.000000i     0.000000   -0.000000i     0.000000    0.000000i
 <Sz= 1.50|    0.000000    0.000000i     0.000000    0.000000i    -0.000000    0.000000i     0.000000   -0.000000i
 Total mean-field SOC matrix (cm-1): < B(S,Sz) | Hsomf | A(S',Sz') >
                     |Sz'=-1.50>              |Sz'=-0.50>              |Sz'= 0.50>              |Sz'= 1.50>
 <Sz=-1.50|    0.000000   -0.000000i    -0.000000   -0.000000i     0.000000    0.000000i     0.000000    0.000000i
 <Sz=-0.50|    0.000000   -0.000000i     0.000000   -0.000000i    -0.000000   -0.000000i     0.000000    0.000000i
 <Sz= 0.50|    0.000000    0.000000i     0.000000   -0.000000i     0.000000    0.000000i    -0.000000   -0.000000i
 <Sz= 1.50|    0.000000    0.000000i     0.000000    0.000000i     0.000000   -0.000000i     0.000000    0.000000i
Mean-Field SOCC =     0.000000000 cm-1
   
**************************************************
State A: Root 10
State B: Root  6
  
Angular momentum components
< B | Lx | A > =    -0.000000000i
< B | Ly | A > =     0.000000000i
< B | Lz | A > =    -0.000000141i
  
Norm of one-particle transition density matrix
||gamma^AB||_total       =  0.664326
||gamma^AB||_symmetrized =  0.494803
||gamma^AB||_anti-symm   =  0.443282
  
Spin-orbit couplings
 Using HF (reference) density for the 2-elec mean-field SOC contribution
KET: S',Sz' (Root  10) =  1.500 0.500
BRA: S ,Sz  (Root   6) =  0.500 0.500
Clebsh-Gordan coefficient: < 1.500, 0.500; 1.000, 0.000| 0.500, 0.500> = -0.577
 Reading 1e-SO integrals
 1e Reduced matrix elements (cm-1)
<S|| Hso(L-) ||S'> =    -0.0000000000    -0.0000000000
<S|| Hso(L0) ||S'> =     0.0000000000   103.7298183806
<S|| Hso(L+) ||S'> =    -0.0000000000     0.0000000000
 1-elec SOC matrix (cm-1): < B(S,Sz) | Hso(1e) | A(S',Sz') >
                     |Sz'=-1.50>              |Sz'=-0.50>              |Sz'= 0.50>              |Sz'= 1.50>
 <Sz=-0.50|   -0.000000   -0.000000i     0.000000  -59.888439i    -0.000000    0.000000i    -0.000000    0.000000i
 <Sz= 0.50|    0.000000    0.000000i    -0.000000   -0.000000i     0.000000  -59.888439i    -0.000000    0.000000i
1-elec SOCC =    84.695042048 cm-1
 Reading 2e-SOMF integrals
 2e-SOMF Reduced matrix elements (cm-1)
<S|| Hso(L-) ||S'> =     0.0000000000     0.0000000000
<S|| Hso(L0) ||S'> =     0.0000000000   -39.3605575100
<S|| Hso(L+) ||S'> =     0.0000000000    -0.0000000000
 2-elec mean-field SOC matrix (cm-1): < B(S,Sz) | Hso(2e-mf) | A(S',Sz') >
                     |Sz'=-1.50>              |Sz'=-0.50>              |Sz'= 0.50>              |Sz'= 1.50>
 <Sz=-0.50|    0.000000    0.000000i    -0.000000   22.724828i     0.000000   -0.000000i     0.000000   -0.000000i
 <Sz= 0.50|    0.000000    0.000000i     0.000000    0.000000i     0.000000   22.724828i     0.000000   -0.000000i
 Total mean-field SOC matrix (cm-1): < B(S,Sz) | Hsomf | A(S',Sz') >
                     |Sz'=-1.50>              |Sz'=-0.50>              |Sz'= 0.50>              |Sz'= 1.50>
 <Sz=-0.50|   -0.000000   -0.000000i     0.000000  -37.163610i    -0.000000    0.000000i    -0.000000    0.000000i
 <Sz= 0.50|    0.000000    0.000000i    -0.000000   -0.000000i     0.000000  -37.163610i    -0.000000    0.000000i
Mean-Field SOCC =    52.557281418 cm-1
   
**************************************************
State A: Root 10
State B: Root  7
  
Angular momentum components
< B | Lx | A > =    -0.000000000i
< B | Ly | A > =    -0.000000003i
< B | Lz | A > =    -0.000000000i
  
Norm of one-particle transition density matrix
||gamma^AB||_total       =  0.340481
||gamma^AB||_symmetrized =  0.274358
||gamma^AB||_anti-symm   =  0.201631
  
Spin-orbit couplings
 Using HF (reference) density for the 2-elec mean-field SOC contribution
KET: S',Sz' (Root  10) =  1.500 0.500
BRA: S ,Sz  (Root   7) =  0.500 0.500
Clebsh-Gordan coefficient: < 1.500, 0.500; 1.000, 0.000| 0.500, 0.500> = -0.577
 Reading 1e-SO integrals
 1e Reduced matrix elements (cm-1)
<S|| Hso(L-) ||S'> =    12.1062725272     0.0000000000
<S|| Hso(L0) ||S'> =     0.0000000000     0.0000000000
<S|| Hso(L+) ||S'> =    12.1062725272    -0.0000000000
 1-elec SOC matrix (cm-1): < B(S,Sz) | Hso(1e) | A(S',Sz') >
                     |Sz'=-1.50>              |Sz'=-0.50>              |Sz'= 0.50>              |Sz'= 1.50>
 <Sz=-0.50|    8.560427    0.000000i    -0.000000   -0.000000i     4.942365   -0.000000i     0.000000   -0.000000i
 <Sz= 0.50|    0.000000    0.000000i     4.942365    0.000000i     0.000000   -0.000000i     8.560427   -0.000000i
1-elec SOCC =    13.979119405 cm-1
 Reading 2e-SOMF integrals
 2e-SOMF Reduced matrix elements (cm-1)
<S|| Hso(L-) ||S'> =    -3.9013360170    -0.0000000000
<S|| Hso(L0) ||S'> =     0.0000000000    -0.0000000000
<S|| Hso(L+) ||S'> =    -3.9013360170     0.0000000000
 2-elec mean-field SOC matrix (cm-1): < B(S,Sz) | Hso(2e-mf) | A(S',Sz') >
                     |Sz'=-1.50>              |Sz'=-0.50>              |Sz'= 0.50>              |Sz'= 1.50>
 <Sz=-0.50|   -2.758661   -0.000000i     0.000000    0.000000i    -1.592714    0.000000i    -0.000000    0.000000i
 <Sz= 0.50|    0.000000    0.000000i    -1.592714   -0.000000i     0.000000    0.000000i    -2.758661    0.000000i
 Total mean-field SOC matrix (cm-1): < B(S,Sz) | Hsomf | A(S',Sz') >
                     |Sz'=-1.50>              |Sz'=-0.50>              |Sz'= 0.50>              |Sz'= 1.50>
 <Sz=-0.50|    5.801766    0.000000i    -0.000000   -0.000000i     3.349651   -0.000000i     0.000000   -0.000000i
 <Sz= 0.50|    0.000000    0.000000i     3.349651    0.000000i     0.000000   -0.000000i     5.801766   -0.000000i
Mean-Field SOCC =     9.474244606 cm-1
   
**************************************************
State A: Root 10
State B: Root  8
  
Angular momentum components
< B | Lx | A > =     0.000000000i
< B | Ly | A > =    -0.000000175i
< B | Lz | A > =     0.000000000i
  
Norm of one-particle transition density matrix
||gamma^AB||_total       =  0.566038
||gamma^AB||_symmetrized =  0.425683
||gamma^AB||_anti-symm   =  0.373086
  
Spin-orbit couplings
 Using HF (reference) density for the 2-elec mean-field SOC contribution
KET: S',Sz' (Root  10) =  1.500 0.500
BRA: S ,Sz  (Root   8) =  0.500 0.500
Clebsh-Gordan coefficient: < 1.500, 0.500; 1.000, 0.000| 0.500, 0.500> = -0.577
 Reading 1e-SO integrals
 1e Reduced matrix elements (cm-1)
<S|| Hso(L-) ||S'> =   -58.3886860290     0.0000000000
<S|| Hso(L0) ||S'> =     0.0000000000     0.0000000000
<S|| Hso(L+) ||S'> =   -58.3886860290    -0.0000000000
 1-elec SOC matrix (cm-1): < B(S,Sz) | Hso(1e) | A(S',Sz') >
                     |Sz'=-1.50>              |Sz'=-0.50>              |Sz'= 0.50>              |Sz'= 1.50>
 <Sz=-0.50|  -41.287036    0.000000i     0.000000   -0.000000i   -23.837081   -0.000000i    -0.000000   -0.000000i
 <Sz= 0.50|    0.000000    0.000000i   -23.837081    0.000000i     0.000000   -0.000000i   -41.287036   -0.000000i
1-elec SOCC =    67.421447193 cm-1
 Reading 2e-SOMF integrals
 2e-SOMF Reduced matrix elements (cm-1)
<S|| Hso(L-) ||S'> =    24.9556746671    -0.0000000000
<S|| Hso(L0) ||S'> =     0.0000000000    -0.0000000000
<S|| Hso(L+) ||S'> =    24.9556746671     0.0000000000
 2-elec mean-field SOC matrix (cm-1): < B(S,Sz) | Hso(2e-mf) | A(S',Sz') >
                     |Sz'=-1.50>              |Sz'=-0.50>              |Sz'= 0.50>              |Sz'= 1.50>
 <Sz=-0.50|   17.646327   -0.000000i    -0.000000    0.000000i    10.188112    0.000000i     0.000000    0.000000i
 <Sz= 0.50|    0.000000    0.000000i    10.188112   -0.000000i     0.000000    0.000000i    17.646327    0.000000i
 Total mean-field SOC matrix (cm-1): < B(S,Sz) | Hsomf | A(S',Sz') >
                     |Sz'=-1.50>              |Sz'=-0.50>              |Sz'= 0.50>              |Sz'= 1.50>
 <Sz=-0.50|  -23.640709    0.000000i     0.000000   -0.000000i   -13.648970   -0.000000i    -0.000000   -0.000000i
 <Sz= 0.50|    0.000000    0.000000i   -13.648970    0.000000i     0.000000   -0.000000i   -23.640709   -0.000000i
Mean-Field SOCC =    38.605116219 cm-1
   
**************************************************
State A: Root 10
State B: Root  9
  
Angular momentum components
< B | Lx | A > =     0.000000000i
< B | Ly | A > =     0.000000000i
< B | Lz | A > =     0.000000000i
  
Norm of one-particle transition density matrix
||gamma^AB||_total       =  0.318968
||gamma^AB||_symmetrized =  0.318730
||gamma^AB||_anti-symm   =  0.012325
  
Spin-orbit couplings
 Using HF (reference) density for the 2-elec mean-field SOC contribution
KET: S',Sz' (Root  10) =  1.500 0.500
BRA: S ,Sz  (Root   9) =  0.500 0.500
Clebsh-Gordan coefficient: < 1.500, 0.500; 1.000, 0.000| 0.500, 0.500> = -0.577
 Reading 1e-SO integrals
 1e Reduced matrix elements (cm-1)
<S|| Hso(L-) ||S'> =    -0.0000000000     0.0000000000
<S|| Hso(L0) ||S'> =     0.0000000000    -0.0000000000
<S|| Hso(L+) ||S'> =    -0.0000000000    -0.0000000000
 1-elec SOC matrix (cm-1): < B(S,Sz) | Hso(1e) | A(S',Sz') >
                     |Sz'=-1.50>              |Sz'=-0.50>              |Sz'= 0.50>              |Sz'= 1.50>
 <Sz=-0.50|   -0.000000    0.000000i     0.000000    0.000000i    -0.000000   -0.000000i    -0.000000   -0.000000i
 <Sz= 0.50|    0.000000    0.000000i    -0.000000    0.000000i     0.000000    0.000000i    -0.000000   -0.000000i
1-elec SOCC =     0.000000000 cm-1
 Reading 2e-SOMF integrals
 2e-SOMF Reduced matrix elements (cm-1)
<S|| Hso(L-) ||S'> =     0.0000000000    -0.0000000000
<S|| Hso(L0) ||S'> =     0.0000000000     0.0000000000
<S|| Hso(L+) ||S'> =     0.0000000000     0.0000000000
 2-elec mean-field SOC matrix (cm-1): < B(S,Sz) | Hso(2e-mf) | A(S',Sz') >
                     |Sz'=-1.50>              |Sz'=-0.50>              |Sz'= 0.50>              |Sz'= 1.50>
 <Sz=-0.50|    0.000000   -0.000000i    -0.000000   -0.000000i     0.000000    0.000000i     0.000000    0.000000i
 <Sz= 0.50|    0.000000    0.000000i     0.000000   -0.000000i     0.000000   -0.000000i     0.000000    0.000000i
 Total mean-field SOC matrix (cm-1): < B(S,Sz) | Hsomf | A(S',Sz') >
                     |Sz'=-1.50>              |Sz'=-0.50>              |Sz'= 0.50>              |Sz'= 1.50>
 <Sz=-0.50|   -0.000000    0.000000i     0.000000    0.000000i    -0.000000   -0.000000i    -0.000000   -0.000000i
 <Sz= 0.50|    0.000000    0.000000i    -0.000000    0.000000i     0.000000    0.000000i    -0.000000   -0.000000i
Mean-Field SOCC =     0.000000000 cm-1
   
**************************************************
RAS-CI timing summary (seconds)
  CPU time          2.37s
  System time       0.00s
  Wall time         5.17s
Detailed CPU timing summary
     Fock matrix         :         0.0028 s
     Integrals           :         0.0061 s
     Addressing matrices :         0.0001 s
     Guesses             :         0.0004 s
     Iterations          :         2.1012 s
     Properties          :         0.2594 s
     RAS-CI(2) correction:         0.0000 s
  
 
 --------------------------------------------------------------
             Orbital Energies (a.u.) and Symmetries
 --------------------------------------------------------------
 
 Alpha MOs, Restricted
 -- Doubly Occupied --           
-20.956  -1.823  -1.150  -0.972
  1 A1    2 A1    1 B1    1 B2                                                 
 -- Singly Occupied (Occupied) --
 -1.135
  3 A1                                                                         
 -- Virtual --                   
  0.075   0.181
  4 A1    2 B1                                                                 
 
 Beta MOs, Restricted
 -- Doubly Occupied --           
-20.956  -1.823  -1.150  -0.972
  1 A1    2 A1    1 B1    1 B2                                                 
 -- Singly Occupied (Vacant) --  
 -1.135
  3 A1                                                                         
 -- Virtual --                   
  0.075   0.181
  4 A1    2 B1                                                                 
 --------------------------------------------------------------
 
          Ground-State Mulliken Net Atomic Charges

     Atom                 Charge (a.u.)
  ----------------------------------------
      1 O                     0.048962
      2 H                     0.475519
      3 H                     0.475519
  ----------------------------------------
  Sum of atomic charges =     1.000000

  Do orbital-by-orbital Lowdin population analysis
 

              Partial Lowdin         Populations for Occupied RHF Orbitals

                         1         2         3         4         5
                        1A1       2A1       1B1       1B2       3A1  
   1    O     s     1.99950   1.45501   0.00000   0.00000   0.23183
   2    O     p     0.00000   0.06377   1.30598   2.00000   1.62958
   3    H 1   s     0.00025   0.24061   0.34701   0.00000   0.06929
   4    H 2   s     0.00025   0.24061   0.34701   0.00000   0.06929
 
 -----------------------------------------------------------------
                    Cartesian Multipole Moments
 -----------------------------------------------------------------
    Charge (ESU x 10^10)
                 4.8032
    Dipole Moment (Debye)
         X      -0.0000      Y      -0.0000      Z      -1.8993
       Tot       1.8993
    Quadrupole Moments (Debye-Ang)
        XX      -1.7097     XY       0.0000     YY      -5.4316
        XZ      -0.0000     YZ       0.0000     ZZ      -3.2320
    Octopole Moments (Debye-Ang^2)
       XXX      -0.0000    XXY      -0.0000    XYY      -0.0000
       YYY      -0.0000    XXZ      -1.7814    XYZ      -0.0000
       YYZ      -0.1378    XZZ       0.0000    YZZ      -0.0000
       ZZZ      -0.7126
    Hexadecapole Moments (Debye-Ang^3)
      XXXX      -3.1459   XXXY       0.0000   XXYY      -1.4108
      XYYY       0.0000   YYYY      -2.8013   XXXZ       0.0000
      XXYZ       0.0000   XYYZ       0.0000   YYYZ      -0.0000
      XXZZ      -0.6180   XYZZ       0.0000   YYZZ      -1.0158
      XZZZ      -0.0000   YZZZ       0.0000   ZZZZ      -2.9171
 -----------------------------------------------------------------
 Mayer SCF Bond Order, atomic valence on the diagonal:

            1           2           3
    1   1.4912081   0.7456041   0.7456041
    2   0.7456041   0.7723316   0.0267276
    3   0.7456041   0.0267276   0.7723316


 Total job time:  6.01s(wall), 2.71s(cpu) 
 Tue Sep 12 15:58:11 2023

======= MOLDEN-FORMATTED INPUT FILE FOLLOWS =======
[Molden Format]
[Atoms] (Angs)
  O      1    8      0.00000000      0.00000000      0.11555121
  H      2    1     -0.81253118     -0.00000000     -0.46220486
  H      3    1      0.81253118     -0.00000000     -0.46220486

======= END OF MOLDEN-FORMATTED INPUT FILE =======


        *************************************************************
        *                                                           *
        *  Thank you very much for using Q-Chem.  Have a nice day.  *
        *                                                           *
        *************************************************************


