                  Welcome to Q-Chem
     A Quantum Leap Into The Future Of Chemistry


 Q-Chem 6.0 (devel), Q-Chem, Inc., Pleasanton, CA (2022)

 E. Epifanovsky,  A. T. B. Gilbert,  Xintian Feng,  Joonho Lee,  Yuezhi Mao,  
 N. Mardirossian,  P. Pokhilko,  A. White,  M. Wormit,  M. P. Coons,  
 A. L. Dempwolff,  Zhengting Gan,  D. Hait,  P. R. Horn,  L. D. Jacobson,  
 I. Kaliman,  J. Kussmann,  A. W. Lange,  Ka Un Lao,  D. S. Levine,  Jie Liu,  
 S. C. McKenzie,  A. F. Morrison,  K. Nanda,  F. Plasser,  D. R. Rehn,  
 M. L. Vidal,  Zhi-Qiang You,  Ying Zhu,  B. Alam,  B. Albrecht,  
 A. Aldossary,  E. Alguire,  J. H. Andersen,  V. Athavale,  D. Barton,  
 K. Begam,  A. Behn,  N. Bellonzi,  Y. A. Bernard,  E. J. Berquist,  
 H. Burton,  A. Carreras,  K. Carter-Fenk,  Romit Chakraborty,  
 Chandrima Chakravarty,  Junhan Chen,  A. D. Chien,  K. D. Closser,  
 V. Cofer-Shabica,  L. Cunha,  S. Dasgupta,  Jia Deng,  M. de Wergifosse,  
 M. Diedenhofen,  Hainam Do,  S. Ehlert,  Po-Tung Fang,  S. Fatehi,  
 Qingguo Feng,  T. Friedhoff,  B. Ganoe,  J. Gayvert,  Qinghui Ge,  
 G. Gidofalvi,  M. Goldey,  J. Gomes,  C. Gonzalez-Espinoza,  S. Gulania,  
 A. Gunina,  J. A. Gyamfi,  M. W. D. Hanson-Heine,  P. H. P. Harbach,  
 A. W. Hauser,  M. F. Herbst,  M. Hernandez Vera,  M. Hodecker,  
 Z. C. Holden,  S. Houck,  Xunkun Huang,  Kerwin Hui,  B. C. Huynh,  
 K. Ikeda,  M. Ivanov,  Hyunjun Ji,  Zuxin Jin,  Hanjie Jiang,  B. Kaduk,  
 S. Kaehler,  R. Kang,  K. Khistyaev,  Jaehoon Kim,  Yongbin Kim,  
 P. Klunzinger,  Z. Koczor-Benda,  Joong Hoon Koh,  D. Kosenkov,  
 Saikiran Kotaru,  L. Koulias,  T. Kowalczyk,  C. M. Krauter,  K. Kue,  
 A. Kunitsa,  T. Kus,  A. Landau,  K. V. Lawler,  D. Lefrancois,  S. Lehtola,  
 Rain Li,  Shaozhi Li,  Yi-Pei Li,  Jiashu Liang,  M. Liebenthal,  
 Hung-Hsuan Lin,  You-Sheng Lin,  Fenglai Liu,  Kuan-Yu Liu,  
 M. Loipersberger,  A. Luenser,  C. Malbon,  A. Manjanath,  P. Manohar,  
 E. Mansoor,  S. F. Manzer,  Shan-Ping Mao,  A. V. Marenich,  T. Markovich,  
 S. Mason,  F. Matz,  S. A. Maurer,  P. F. McLaughlin,  M. F. S. J. Menger,  
 J.-M. Mewes,  S. A. Mewes,  P. Morgante,  Mohammad Mostafanejad,  
 J. W. Mullinax,  K. J. Oosterbaan,  G. Paran,  V. Parravicini,  
 Alexander C. Paul,  Suranjan K. Paul,  F. Pavosevic,  Zheng Pei,  S. Prager,  
 E. I. Proynov,  E. Ramos,  B. Rana,  A. E. Rask,  A. Rettig,  R. M. Richard,  
 F. Rob,  E. Rossomme,  T. Scheele,  M. Scheurer,  M. Schneider,  
 P. E. Schneider,  N. Sergueev,  S. M. Sharada,  Hengyuan Shen,  
 W. Skomorowski,  D. W. Small,  C. J. Stein,  Yingli Su,  Yu-Chuan Su,  
 E. J. Sundstrom,  Zhen Tao,  J. Thirman,  Hung-Yi Tsai,  T. Tsuchimochi,  
 N. M. Tubman,  C. Utku,  S. P. Veccham,  O. Vydrov,  J. Wenzel,  
 Jonathan Wong,  J. Witte,  A. Yamada,  Chou-Hsun Yang,  Kun Yao,  
 S. Yeganeh,  S. R. Yost,  A. Zech,  F. Zeller,  Igor Ying Zhang,  
 Xing Zhang,  Yu Zhang,  D. Zuev,  A. Aspuru-Guzik,  A. T. Bell,  
 N. A. Besley,  K. B. Bravaya,  B. R. Brooks,  D. Casanova,  Jeng-Da Chai,  
 Hsing-Ta Chen,  S. Coriani,  C. J. Cramer,  A. E. DePrince, III,  
 R. A. DiStasio Jr.,  A. Dreuw,  B. D. Dunietz,  T. R. Furlani,  
 W. A. Goddard III,  S. Grimme,  S. Hammes-Schiffer,  T. Head-Gordon,  
 W. J. Hehre,  Chao-Ping Hsu,  T.-C. Jagau,  Yousung Jung,  A. Klamt,  
 Jing Kong,  D. S. Lambrecht,  Xiangyuan Li,  WanZhen Liang,  N. J. Mayhall,  
 C. W. McCurdy,  J. B. Neaton,  T. Neudecker,  C. Ochsenfeld,  
 J. A. Parkhill,  R. Peverati,  V. A. Rassolov,  Haisheng Ren,  Yihan Shao,  
 L. V. Slipchenko,  R. P. Steele,  J. E. Subotnik,  A. J. W. Thom,  
 A. Tkatchenko,  D. G. Truhlar,  T. Van Voorhis,  Fan Wang,  
 T. A. Wesolowski,  K. B. Whaley,  H. L. Woodcock III,  P. M. Zimmerman,  
 S. Faraji,  P. M. W. Gill,  M. Head-Gordon,  J. M. Herbert,  A. I. Krylov

 Contributors to earlier versions of Q-Chem not listed above: 
 R. D. Adamson,  B. Austin,  R. Baer,  J. Baker,  G. J. O. Beran,  
 K. Brandhorst,  S. T. Brown,  E. F. C. Byrd,  Arup K. Chakraborty,  
 G. K. L. Chan,  Chun-Min Chang,  Yunqing Chen,  C.-L. Cheng,  
 Siu Hung Chien,  D. M. Chipman,  D. L. Crittenden,  H. Dachsel,  
 R. J. Doerksen,  A. D. Dutoi,  R. G. Edgar,  J. Fosso-Tande,  
 L. Fusti-Molnar,  D. Ghosh,  A. Ghysels,  A. Golubeva-Zadorozhnaya,  
 J. Gonthier,  M. S. Gordon,  S. R. Gwaltney,  G. Hawkins,  J. E. Herr,  
 A. Heyden,  S. Hirata,  E. G. Hohenstein,  G. Kedziora,  F. J. Keil,  
 C. Kelley,  Jihan Kim,  R. A. King,  R. Z. Khaliullin,  P. P. Korambath,  
 W. Kurlancheek,  A. Laurent,  A. M. Lee,  M. S. Lee,  S. V. Levchenko,  
 Ching Yeh Lin,  D. Liotard,  E. Livshits,  R. C. Lochan,  I. Lotan,  
 L. A. Martinez-Martinez,  P. E. Maslen,  N. Nair,  D. P. O'Neill,  
 D. Neuhauser,  E. Neuscamman,  C. M. Oana,  R. Olivares-Amaya,  R. Olson,  
 T. M. Perrine,  B. Peters,  P. A. Pieniazek,  A. Prociuk,  Y. M. Rhee,  
 J. Ritchie,  M. A. Rohrdanz,  E. Rosta,  N. J. Russ,  H. F. Schaefer III,  
 M. W. Schmidt,  N. E. Schultz,  S. Sharma,  N. Shenvi,  C. D. Sherrill,  
 A. C. Simmonett,  A. Sodt,  T. Stein,  D. Stuck,  K. S. Thanthiriwatte,  
 V. Vanovschi,  L. Vogt,  Tao Wang,  A. Warshel,  M. A. Watson,  
 C. F. Williams,  Q. Wu,  X. Xu,  Jun Yang,  W. Zhang,  Yan Zhao

   Please cite Q-Chem as follows:
  "Software for the frontiers of quantum chemistry:
   An overview of developments in the Q-Chem 5 package"
   J. Chem. Phys. 155, 084801 (2021)
   https://doi.org/10.1063/5.0055522 (open access)

 Q-Chem 6.0.1 for Intel X86 EM64T Linux

 Parts of Q-Chem use Armadillo 9.900.5 (Nocturnal Misbehaviour).
 http://arma.sourceforge.net/

 Q-Chem begins on Fri Mar 24 03:03:24 2023  

 Host: atlas-137
0

     Scratch files written to ./qchem102994//
 Processing $rem in /scratch/abel/SOFTWARE/qchem/config/preferences:
 Processing $rem in /dipc/acebg/.qchemrc:

 Checking the input file for inconsistencies... 	...done.

--------------------------------------------------------------
User input:
--------------------------------------------------------------
$comment
 RAS-SF CALCULATION
$end

$molecule
 READ cucl4_2-.molecule
$end

$rem
!**CALCULATION TYPE***     
JOBTYPE            sp    
EXCHANGE           HF
CORRELATION        RASCI    !RASCI=Casanova; RASCI2=Zimmerman
BASIS              def2-TZVP
BASIS2             STO-3G

!***SCF REFERENCE***
SKIP_SCFMAN        FALSE
UNRESTRICTED       FALSE
!SCF_GUESS          core
!SCF_GUESS_MIX      FALSE
!SCF_GUESS_ALWAYS   FALSE
MAX_SCF_CYCLES     500
SCF_CONVERGENCE    8
!SCF_ALGORITHM      DIIS !DIIS,DM,DIIS_DM,GDM,DIIS_GDM,GD

SYMMETRY           TRUE !use of symmetry for calculating integrals
SYM_IGNORE         FALSE !turn off using symmetry
SYM_TOL            5 !tolerance for determining point group

!THRESH             14
SCF_FINAL_PRINT     1 !0,1,2,3

!****RAS-SF****
RAS_ROOTS          20       !number of RAS-CI roots to be computed
SET_ITER           150     !number of iterations in RASCI
RAS_ELEC           17       !number of electrons in RAS2
!RAS_ELEC_ALPHA            !spin-α electrons in RAS2 
!RAS_ELEC_BETA             !spin-β electrons in RAS2

RAS_ACT            10       !number of orbitals in RAS2 
RAS_ACT_ORB       [34, 35, 36, 37, 41, 43, 44, 45, 50, 51] !user-selected RAS2 orbitals
RAS_OCC            41       !number of orbitals in RAS1
N_FROZEN_CORE      FC     !Number of frozen core orbitals
N_FROZEN_VIRTUAL   0      !Number of frozen virtual orbitals
RAS_NATORB         TRUE    !computation of the natural orbital occupancies
!RAS_NATORB_STATE  0      !Saves NO of i RAS computed state in .fchk ﬁle

RAS_DO_HOLE        TRUE   !presence of hole excitations in RAS-CI wave function
RAS_DO_PART        TRUE   !presence of particle excitations
RAS_AMPL_PRINT     10     !threshold (×10 2 ) for the CI amplitudes

RAS_GUESS_CS       0      !number of closed shell guess conﬁgurations
RAS_SPIN_MULT      0      !spin multiplicity: 0=any, 2n+1=defined 
RAS_SRDFT          FALSE  !short-range density functional RAS-CI
RAS_NFRAG          0     !fragments of excitation analysis in RASCI

RAS_PRINT          2      !level of information
RAS_NATORB         TRUE   !computation of the natural orbital occupancies
!RAS_NATORB_STATE  0      !Saves NO of i RAS computed state in .fchk ﬁle
RAS_FOD            TRUE

!****RAS-SOC****
CALC_SOC           TRUE   !calculate SOC for EOM-CC, RAS-CI, ADC, TDDFT/TDA and TDDFT
!RAS_SOC_2E        TRUE   !two-electron mean-ﬁeld contribution, default=true
RAS_SOC_SYM_DENS   TRUE   !averaging of α and β densities

!****MEMORY****
MEM_TOTAL          10000 !Default 2000 MB
MEM_STATIC         2000  !Default 64 MB

!**Molecular Properties and Analysis **                                                                                          
GUI                2
STATE_ANALYSIS     TRUE
MOLDEN_FORMAT      TRUE
PRINT_ORBITALS     20
$end                                           

--------------------------------------------------------------
 ----------------------------------------------------------------
             Standard Nuclear Orientation (Angstroms)
    I     Atom           X                Y                Z
 ----------------------------------------------------------------
    1      Cu     -0.0000000000     0.0000000000    -0.0000000000
    2      Cl      2.3112385002    -0.0000000000    -0.0000000000
    3      Cl      0.0000000000     2.3112385002    -0.0000000000
    4      Cl     -0.0000000000    -2.3112385002     0.0000000000
    5      Cl     -2.3112385002     0.0000000000     0.0000000000
 ----------------------------------------------------------------
 Molecular Point Group                 D2h   NOp =  8
 Largest Abelian Subgroup              D2h   NOp =  8
 Nuclear Repulsion Energy =         704.82872953 hartrees
 There are       50 alpha and       49 beta electrons
 Requested basis set is def2-TZVP
 There are 67 shells and 193 basis functions

 Total QAlloc Memory Limit  10000 MB
 Mega-Array Size      1956 MB
 MEM_STATIC part      2000 MB


                       Distance Matrix (Angstroms)
             Cu(  1)   Cl(  2)   Cl(  3)   Cl(  4)
   Cl(  2)  2.311239
   Cl(  3)  2.311239  3.268585
   Cl(  4)  2.311239  3.268585  4.622477
   Cl(  5)  2.311239  4.622477  3.268585  3.268585
 
 A cutoff of  1.0D-12 yielded   1874 shell pairs
 There are     16710 function pairs (     21943 Cartesian)
 Smallest overlap matrix eigenvalue = 9.49E-03

 Scale SEOQF with 1.000000e-01/1.000000e-01/1.000000e-01

 Standard Electronic Orientation quadrupole field applied
 Nucleus-field energy     =     0.0000000195 hartrees
 Requested basis set is STO-3G
 There are 17 shells and 54 basis functions
 A cutoff of  1.0D-12 yielded    113 shell pairs
 There are      1311 function pairs (      1371 Cartesian)
 Smallest overlap matrix eigenvalue = 2.93E-01
 Constructing guess Fock matrix from core Hamiltonian
 Applying Wolfsberg-Helmholtz approximation
 A restricted Hartree-Fock SCF calculation will be
 performed using Geometric Direct Minimization
 SCF converges when RMS gradient is below 1.0E-04
 ---------------------------------------
  Cycle       Energy        RMS Gradient
 ---------------------------------------
    1   -3414.0448209425      5.46E+00 Descent step
    2   -3416.0789549848      2.40E+04 Line search: understep
    3   -3427.8100586570      1.46E+00 Descent step
    4   -3428.6717161485      8.51E+03 Line search: understep
    5   -3432.7992156610      3.93E+00 Descent step
    6   -3434.1070673373      2.01E+00 Descent step
    7   -3434.9438365728      1.55E+00 Descent step
    8   -3435.7226093628      1.29E+00 Descent step
    9   -3436.3932676866      1.07E+00 Descent step
   10   -3436.8898005574      8.41E-01 Descent step
   11   -3437.2425841589      6.16E-01 Descent step
   12   -3437.5069357397      4.90E-01 Descent step
   13   -3437.7549079830      7.45E-01 Descent step
   GDM::BFGS:   rebuilding Hinv to be positive definite
   14   -3438.0546748814      1.23E+00 Descent step
   15   -3438.4424555280      4.57E-01 Descent step
   16   -3438.5678499566      1.90E-01 Dog-leg BFGS step
   17   -3438.5808861029      1.08E-01 Dog-leg BFGS step
   18   -3438.5894129584      7.78E-02 Dog-leg BFGS step
   19   -3438.5751444492      2.78E+01 Line search: overstep
   20   -3438.5941026412      6.21E-02 Dog-leg BFGS step
   21   -3438.5985463983      1.32E-02 Normal BFGS step
   22   -3438.5986574106      3.08E-03 Normal BFGS step
   23   -3438.5986645899      6.88E-04 Normal BFGS step
   24   -3438.5986654896      2.25E-04 Normal BFGS step
   25   -3438.5986656685      4.54E-05 Convergence criterion met
 ---------------------------------------
 One-Electron    Energy = -6230.8986956401
 Total Coulomb   Energy =  2265.0313634541
 Alpha Exchange  Energy =   -88.9417208690
 Beta  Exchange  Energy =   -88.6183421633
 DFT   Exchange  Energy =     0.0000000000
 DFT Correlation Energy =     0.0000000000
 Nuclear Repu.   Energy =   704.8287295498
 Nuclear Attr.   Energy = -9638.5422937596
 Kinetic         Energy =  3407.6435981195
 SCF time:  CPU 2.29 s  wall 4.20 s
 SCF   energy in the small basis set = -3438.59866567
 Total energy in the small basis set = -3438.59866567
 ----------------------------------------------------
  Cycle       Energy    
 ----------------------------------------------------
    1    -163.9689023428     -1.64E+02
 A restricted Hartree-Fock SCF calculation will be
 performed using Geometric Direct Minimization
 SCF converges when RMS gradient is below 1.0E-08
 ---------------------------------------
  Cycle       Energy        RMS Gradient
 ---------------------------------------
    1   -3476.5617618619      5.21E-01 Descent step
    2   -3476.8147995946      3.23E-01 Descent step
    3   -3477.0337745587      2.10E-01 Descent step
    4   -3477.1478394215      1.08E-01 Normal BFGS step
    5   -3477.1744814111      3.88E-02 Normal BFGS step
    6   -3477.1779029598      1.35E-02 Normal BFGS step
    7   -3477.1781984402      3.71E-02 Normal BFGS step
    8   -3477.1784326126      1.26E-02 Normal BFGS step
    9   -3477.1784852679      1.87E-03 Normal BFGS step
   10   -3477.1784884386      4.43E-04 Normal BFGS step
   11   -3477.1784886068      4.49E-05 Normal BFGS step
   12   -3477.1784886177      2.00E-05 Normal BFGS step
   13   -3477.1784886189      3.34E-06 Normal BFGS step
   GDM::WARNING energy changes are now smaller than effective accuracy.
   GDM::        calculation will continue, but THRESH should be increased
   GDM::        or SCF_CONVERGENCE decreased.
   GDM::        effective_thresh =   2.222980209631853E-009
   14   -3477.1784886188      2.33E-06 Normal BFGS step
   15   -3477.1784886191      4.61E-07 Normal BFGS step
   GDM::WARNING energy changes are now smaller than effective accuracy.
   GDM::        calculation will continue, but THRESH should be increased
   GDM::        or SCF_CONVERGENCE decreased.
   GDM::        effective_thresh =   2.222980209631853E-009
   16   -3477.1784886190      6.47E-08 Normal BFGS step
   17   -3477.1784886190      2.94E-08 Normal BFGS step
   GDM::WARNING energy changes are now smaller than effective accuracy.
   GDM::        calculation will continue, but THRESH should be increased
   GDM::        or SCF_CONVERGENCE decreased.
   GDM::        effective_thresh =   2.222980209631853E-009
   18   -3477.1784886189      4.36E-08 Normal BFGS step
   GDM::WARNING energy changes are now smaller than effective accuracy.
   GDM::        calculation will continue, but THRESH should be increased
   GDM::        or SCF_CONVERGENCE decreased.
   GDM::        effective_thresh =   2.222980209631853E-009
   19   -3477.1784886189      3.04E-08 Normal BFGS step
   20   -3477.1784886189      4.22E-08 Normal BFGS step
   GDM::WARNING energy changes are now smaller than effective accuracy.
   GDM::        calculation will continue, but THRESH should be increased
   GDM::        or SCF_CONVERGENCE decreased.
   GDM::        effective_thresh =   2.222980209631853E-009
   21   -3477.1784886189      1.80E-09 Convergence criterion met
 ---------------------------------------
 One-Electron    Energy = -6269.6381209857
 Total Coulomb   Energy =  2264.1952094075
 Alpha Exchange  Energy =   -88.9536067749
 Beta  Exchange  Energy =   -87.6106998156
 DFT   Exchange  Energy =     0.0000000000
 DFT Correlation Energy =     0.0000000000
 Nuclear Repu.   Energy =   704.8287295498
 Nuclear Attr.   Energy = -9747.4359151820
 Kinetic         Energy =  3477.7977941963
 SCF time:  CPU 115.73 s  wall 119.49 s
 SCF   energy in the final basis set = -3477.17848862
 Total energy in the final basis set = -3477.17848862
  
     ##========================================##
     ||                                        ||
     ||              R A S M A N 2             ||
     ||________________________________________||
     ||                                        ||
     ||  Author:                               ||
     ||                                        ||
     ||        David Casanova (2010)           ||
     ||                                        ||
     ##========================================##
  
Setting single-point xc-functionals (if necessary)

  ***************************************************
  *  RAS-CI Dimensions:                             *
  *                                                 *
  *  Active Elec.:  17 ( 9, 8)   Active Orb.:  10   *
  *  Doubly Occ. :  41           Doubly Vir.: 142   *
  *  Frozen Occ. :  29           Frozen Vir.:   0   *
  *                                                 *
  *  Total CI configurations:    460140             * 
  *    Active configurations:       450             * 
  *      Hole configurations:      1740             * 
  *  Particle configurations:    457950             * 
  *                                                 *
  *   Requested states:       20                    *
  *  Spin multiplicity: Any multiplicity            *
  *                                                 *
  ***************************************************
-----------------------------------------
    Memory requirements of RASCI

 Each CI-vector requires      3.51 MiB 
 Max. subspace vectors           3000      

 Reduced Lists                0.00 MiB 
 Excitation Lists             0.00 MiB 
 Excitation Lists Sign        0.00 MiB 
 CI-space (Max)           10670.67 MiB 
 Integrals                   59.28 MiB 
 Memory required (Max)    10670.68 MiB 
 Memory available          1907.35 MiB 

 Q-Chem warning in module rasman2/ras_mem_check.C, line 162:

 Static memory may be insufficient to store the subspace vectors


    Disk requirements of RASCI

 Fock matrix                  0.57 MiB 
 2-electron integrals        67.08 MiB 
 CI-space                 21063.54 MiB 
 Disk required            21131.18 MiB 
-----------------------------------------
  
RAS1 HF-like energy:          -3414.3756725162
 Computing integrals
 Computing J and K matrices
 Computing addressing
 Making amplitude guesses
 
Direct CI diagonalization
 ---------------------------------------------------
 Iter    Rts Conv    Rts Left    Ttl Dev     Max Dev
 ---------------------------------------------------
   1         0          20      0.008437    0.001268
   2         0          20      0.007072    0.000616
   3         0          20      0.007620    0.001337
   4         0          20      0.008469    0.001066
   5         0          20      0.006553    0.000761
   6         0          20      0.004844    0.000476
   7         0          20      0.005130    0.000571
   8         0          20      0.003070    0.000328
   9         0          20      0.002810    0.000409
  10         0          20      0.002293    0.000277
  11         0          20      0.002915    0.000699
  12         0          20      0.001859    0.000508
  13         0          20      0.001438    0.000372
  14         0          20      0.001660    0.000516
  15         0          20      0.001132    0.000253
  16         0          20      0.001761    0.000436
  17         0          20      0.001795    0.000466
  18         0          20      0.001660    0.000593
  19         1          19      0.001681    0.000593
  20         2          18      0.001675    0.000625
  21         3          17      0.001390    0.000379
  22         5          15      0.001371    0.000468
  23         5          15      0.001330    0.000364
  24         5          15      0.001340    0.000285
  25         5          15      0.001310    0.000284
  26         5          15      0.001162    0.000247
  27         5          15      0.001129    0.000279
  28         6          14      0.001263    0.000348
  29         6          14      0.001808    0.000397
  30         6          14      0.001415    0.000362
  31         6          14      0.001205    0.000330
  32         6          14      0.001080    0.000265
  33         7          13      0.001131    0.000277
  34         7          13      0.001236    0.000241
  35         7          13      0.001292    0.000300
  36         7          13      0.000975    0.000192
  37         7          13      0.001001    0.000211
  38         9          11      0.001248    0.000324
  39         9          11      0.001064    0.000336
  40        10          10      0.000925    0.000283
  41        10          10      0.000972    0.000339
  42        10          10      0.000914    0.000325
  43        10          10      0.000676    0.000196
  44        10          10      0.000808    0.000260
  45        10          10      0.000583    0.000148
  46        10          10      0.000530    0.000158
  47        10          10      0.000513    0.000147
  48        10          10      0.000443    0.000115
  49        10          10      0.000381    0.000103
  50        10          10      0.000403    0.000118
  51        10          10      0.000375    0.000118
  52        10          10      0.000328    0.000105
  53        10          10      0.000359    0.000127
  54        10          10      0.000338    0.000116
  55        10          10      0.000309    0.000101
  56        10          10      0.000298    0.000098
  57        10          10      0.000326    0.000102
  58        11           9      0.000272    0.000064
  59        11           9      0.000422    0.000198
  60        11           9      0.000412    0.000211
  61        11           9      0.000335    0.000163
  62        11           9      0.000387    0.000217
  63        11           9      0.000371    0.000203
  64        11           9      0.000366    0.000208
  65        11           9      0.000303    0.000159
  66        11           9      0.000345    0.000180
  67        12           8      0.000247    0.000118
  68        12           8      0.000269    0.000131
  69        12           8      0.000256    0.000120
  70        12           8      0.000197    0.000081
  71        12           8      0.000183    0.000077
  72        13           7      0.000197    0.000080
  73        14           6      0.000162    0.000065
  74        14           6      0.000127    0.000049
  75        14           6      0.000137    0.000055
  76        14           6      0.000100    0.000037
  77        14           6      0.000095    0.000037
  78        14           6      0.000088    0.000034
  79        14           6      0.000089    0.000034
  80        14           6      0.000060    0.000021
  81        14           6      0.000074    0.000027
  82        14           6      0.000058    0.000019
  83        15           5      0.000281    0.000225
  84        15           5      0.000216    0.000161
  85        15           5      0.000232    0.000181
  86        15           5      0.000179    0.000137
  87        15           5      0.000168    0.000124
  88        15           5      0.000135    0.000093
  89        15           5      0.000139    0.000105
  90        16           4      0.000103    0.000069
  91        16           4      0.000109    0.000077
  92        17           3      0.000101    0.000070
  93        18           2      0.000084    0.000056
  94        18           2      0.000073    0.000044
  95        18           2      0.000087    0.000058
  96        18           2      0.000067    0.000039
  97        18           2      0.000069    0.000039
  98        18           2      0.000077    0.000046
  99        18           2      0.000061    0.000034
 100        18           2      0.000067    0.000037
 101        18           2      0.000066    0.000036
 102        18           2      0.000065    0.000037
 103        18           2      0.000050    0.000024
 104        18           2      0.000060    0.000033
 105        18           2      0.000046    0.000023
 106        18           2      0.000042    0.000019
 107        18           2      0.000043    0.000020
 108        18           2      0.000035    0.000016
 109        18           2      0.000029    0.000011
 110        18           2      0.000029    0.000012
 111        18           2      0.000029    0.000012
 112        19           1      0.000024    0.000009
 113        19           1      0.000022    0.000008
 114        19           1      0.000021    0.000008
 115        19           1      0.000019    0.000006
 116        19           1      0.000016    0.000004
 117        19           1      0.000019    0.000006
 118        19           1      0.000014    0.000003
 119        19           1      0.000015    0.000003
 120        19           1      0.000014    0.000003
 121        19           1      0.000013    0.000002
 122        19           1      0.000013    0.000002
 123        19           1      0.000013    0.000002
 124        20           0      0.000011    0.000001    Roots Converged
 ---------------------------------------------------
   
**************************************************
 RAS-CI total energy for state   1:  -3477.203885521216
  Excitation energy (eV) =  0.000000000000
  State symmetry: Ag    (D2h      )
  <S^2>      :  0.7500
  Dipole Moment:    0.0000 X     0.0000 Y    -0.0000 Z
 NATURAL OCCUPATION NUMBERS (higher than 1.0E-05)
            1           2           3           4           5           6
    1   2.0000000   2.0000000   2.0000000   2.0000000   2.0000000   2.0000000
            7           8           9          10          11          12
    1   2.0000000   2.0000000   2.0000000   2.0000000   2.0000000   2.0000000
           13          14          15          16          17          18
    1   2.0000000   2.0000000   2.0000000   2.0000000   2.0000000   2.0000000
           19          20          21          22          23          24
    1   2.0000000   2.0000000   2.0000000   2.0000000   2.0000000   2.0000000
           25          26          27          28          29          30
    1   2.0000000   2.0000000   2.0000000   2.0000000   2.0000000   2.0000000
           31          32          33          34          35          36
    1   2.0000000   2.0000000   2.0000000   2.0000000   2.0000000   2.0000000
           37          38          39          40          41          42
    1   2.0000000   1.9999982   1.9999774   1.9999751   1.9998724   1.9998459
           43          44          45          46          47          48
    1   1.9997233   1.9997233   1.9956289   1.9956289   1.9954237   1.9926110
           49          50          51          52          53          54
    1   1.9812672   1.0160407   0.0064792   0.0045388   0.0040920   0.0040920
           55          56          57          58          59          60
    1   0.0030666   0.0011734   0.0001588   0.0001147   0.0001147   0.0000766
           61          62          63          64          65          66
    1   0.0000437   0.0000437   0.0000427   0.0000371   0.0000329   0.0000260
           67          68          69          70          71
    1   0.0000160   0.0000150   0.0000150   0.0000147   0.0000137
Natural Orbitals stored in FCHK

  Amplitudes : 
  
 | HOLE  | ALPHA      | BETA       | PART  |    AMPLITUDE 
--------------------------------------------------
 |       | 1111111110 | 1111111100 |       |     9.6660616609009E-01
 |       | 1111111110 | 1111101110 |       |     1.9095441501352E-01
--------------------------------------------------
*** Contributions RASCI wfn    Active:  97.67
                                 Hole:   0.05
                                 Part:   2.28

      Mulliken population analysis 
 ---------------------------------------------------
   Atom    Charge (a.u.)   Spin (a.u.)  
 ---------------------------------------------------
   1 Cu    0.746886        0.754832 
   2 Cl   -0.686721        0.061292 
   3 Cl   -0.686721        0.061292 
   4 Cl   -0.686721        0.061292 
   5 Cl   -0.686721        0.061292 
 ---------------------------------------------------
   Sum:   -2.000000        1.000000 
 ---------------------------------------------------
 
  
 NATURAL OCCUPATION NUMBERS (higher than 1.0E-05)
            1           2           3           4           5           6
    1   2.0000000   2.0000000   2.0000000   2.0000000   2.0000000   2.0000000
            7           8           9          10          11          12
    1   2.0000000   2.0000000   2.0000000   2.0000000   2.0000000   2.0000000
           13          14          15          16          17          18
    1   2.0000000   2.0000000   2.0000000   2.0000000   2.0000000   2.0000000
           19          20          21          22          23          24
    1   2.0000000   2.0000000   2.0000000   2.0000000   2.0000000   2.0000000
           25          26          27          28          29          30
    1   2.0000000   2.0000000   2.0000000   2.0000000   2.0000000   2.0000000
           31          32          33          34          35          36
    1   2.0000000   2.0000000   2.0000000   2.0000000   2.0000000   2.0000000
           37          38          39          40          41          42
    1   2.0000000   1.9999982   1.9999774   1.9999751   1.9998724   1.9998459
           43          44          45          46          47          48
    1   1.9997233   1.9997233   1.9956289   1.9956289   1.9954237   1.9926110
           49          50          51          52          53          54
    1   1.9812672   1.0160407   0.0064792   0.0045388   0.0040920   0.0040920
           55          56          57          58          59          60
    1   0.0030666   0.0011734   0.0001588   0.0001147   0.0001147   0.0000766
           61          62          63          64          65          66
    1   0.0000437   0.0000437   0.0000427   0.0000371   0.0000329   0.0000260
           67          68          69          70          71
    1   0.0000160   0.0000150   0.0000150   0.0000147   0.0000137
  
*** Unpaired Electrons
 Yamaguchi Nd:         1.13
 Head-Gordon Nu:       1.05
 Head-Gordon Nu_nl:    1.00
  
**************************************************
 RAS-CI total energy for state   2:  -3477.155558215319
  Excitation energy (eV) =  1.315052901263
  State symmetry: B1g   (D2h      )
  <S^2>      :  0.7500
  Dipole Moment:    0.0000 X    -0.0000 Y    -0.0000 Z
  Trans. Moment:   -0.0000 X    -0.0000 Y     0.0000 Z
  Strength   :  0.000000
  Natural transition orbitals ( 1 -> 2 ):
   e-/hole pair  1 alpha:  ampl =  0.006528 (  0.0%)   [10 : 11]
   e-/hole pair  2 alpha:  ampl =  0.004980 (  0.0%)   [9 : 12]
   e-/hole pair  1 beta :  ampl =  0.985256 ( 97.1%)   [10 : 11]
   e-/hole pair  2 beta :  ampl =  0.045371 (  0.2%)   [9 : 12]
   Sum of square amplitudes: 0.97

 NATURAL OCCUPATION NUMBERS (higher than 1.0E-05)
            1           2           3           4           5           6
    1   2.0000000   2.0000000   2.0000000   2.0000000   2.0000000   2.0000000
            7           8           9          10          11          12
    1   2.0000000   2.0000000   2.0000000   2.0000000   2.0000000   2.0000000
           13          14          15          16          17          18
    1   2.0000000   2.0000000   2.0000000   2.0000000   2.0000000   2.0000000
           19          20          21          22          23          24
    1   2.0000000   2.0000000   2.0000000   2.0000000   2.0000000   2.0000000
           25          26          27          28          29          30
    1   2.0000000   2.0000000   2.0000000   2.0000000   2.0000000   2.0000000
           31          32          33          34          35          36
    1   2.0000000   2.0000000   2.0000000   2.0000000   2.0000000   2.0000000
           37          38          39          40          41          42
    1   2.0000000   1.9999933   1.9999932   1.9999883   1.9999693   1.9997900
           43          44          45          46          47          48
    1   1.9997900   1.9996681   1.9985928   1.9983124   1.9983124   1.9963342
           49          50          51          52          53          54
    1   1.9957930   1.0038968   0.0032282   0.0013882   0.0013882   0.0011044
           55          56          57          58          59          60
    1   0.0010492   0.0007601   0.0001313   0.0000692   0.0000692   0.0000475
           61          62          63          64          65          66
    1   0.0000464   0.0000464   0.0000382   0.0000337   0.0000334   0.0000274
           67
    1   0.0000174
Natural Orbitals stored in FCHK

  Amplitudes : 
  
 | HOLE  | ALPHA      | BETA       | PART  |    AMPLITUDE 
--------------------------------------------------
 |       | 1111111110 | 1111011110 |       |     3.0438942114610E-01
 |       | 1111111110 | 0111111110 |       |     9.4667111349018E-01
--------------------------------------------------
*** Contributions RASCI wfn    Active:  99.14
                                 Hole:   0.02
                                 Part:   0.84

      Mulliken population analysis 
 ---------------------------------------------------
   Atom    Charge (a.u.)   Spin (a.u.)  
 ---------------------------------------------------
   1 Cu    0.899694        0.945872 
   2 Cl   -0.724923        0.013532 
   3 Cl   -0.724923        0.013532 
   4 Cl   -0.724923        0.013532 
   5 Cl   -0.724923        0.013532 
 ---------------------------------------------------
   Sum:   -2.000000        1.000000 
 ---------------------------------------------------
 
  
 NATURAL OCCUPATION NUMBERS (higher than 1.0E-05)
            1           2           3           4           5           6
    1   2.0000000   2.0000000   2.0000000   2.0000000   2.0000000   2.0000000
            7           8           9          10          11          12
    1   2.0000000   2.0000000   2.0000000   2.0000000   2.0000000   2.0000000
           13          14          15          16          17          18
    1   2.0000000   2.0000000   2.0000000   2.0000000   2.0000000   2.0000000
           19          20          21          22          23          24
    1   2.0000000   2.0000000   2.0000000   2.0000000   2.0000000   2.0000000
           25          26          27          28          29          30
    1   2.0000000   2.0000000   2.0000000   2.0000000   2.0000000   2.0000000
           31          32          33          34          35          36
    1   2.0000000   2.0000000   2.0000000   2.0000000   2.0000000   2.0000000
           37          38          39          40          41          42
    1   2.0000000   1.9999933   1.9999932   1.9999883   1.9999693   1.9997900
           43          44          45          46          47          48
    1   1.9997900   1.9996681   1.9985928   1.9983124   1.9983124   1.9963342
           49          50          51          52          53          54
    1   1.9957930   1.0038968   0.0032282   0.0013882   0.0013882   0.0011044
           55          56          57          58          59          60
    1   0.0010492   0.0007601   0.0001313   0.0000692   0.0000692   0.0000475
           61          62          63          64          65          66
    1   0.0000464   0.0000464   0.0000382   0.0000337   0.0000334   0.0000274
           67
    1   0.0000174
  
*** Unpaired Electrons
 Yamaguchi Nd:         1.05
 Head-Gordon Nu:       1.02
 Head-Gordon Nu_nl:    1.00
  
**************************************************
 RAS-CI total energy for state   3:  -3477.144955442030
  Excitation energy (eV) =  1.603569041709
  State symmetry: B3g   (D2h      )
  <S^2>      :  0.7500
  Dipole Moment:    0.0000 X    -0.0000 Y    -0.0000 Z
  Trans. Moment:    0.0000 X    -0.0000 Y    -0.0000 Z
  Strength   :  0.000000
  Natural transition orbitals ( 1 -> 3 ):
   e-/hole pair  1 alpha:  ampl =  0.011671 (  0.0%)   [10 : 11]
   e-/hole pair  2 alpha:  ampl =  0.010461 (  0.0%)   [9 : 12]
   e-/hole pair  1 beta :  ampl =  0.983675 ( 96.8%)   [10 : 11]
   e-/hole pair  2 beta :  ampl =  0.042112 (  0.2%)   [9 : 12]
   Sum of square amplitudes: 0.97

 NATURAL OCCUPATION NUMBERS (higher than 1.0E-05)
            1           2           3           4           5           6
    1   2.0000000   2.0000000   2.0000000   2.0000000   2.0000000   2.0000000
            7           8           9          10          11          12
    1   2.0000000   2.0000000   2.0000000   2.0000000   2.0000000   2.0000000
           13          14          15          16          17          18
    1   2.0000000   2.0000000   2.0000000   2.0000000   2.0000000   2.0000000
           19          20          21          22          23          24
    1   2.0000000   2.0000000   2.0000000   2.0000000   2.0000000   2.0000000
           25          26          27          28          29          30
    1   2.0000000   2.0000000   2.0000000   2.0000000   2.0000000   2.0000000
           31          32          33          34          35          36
    1   2.0000000   2.0000000   2.0000000   2.0000000   2.0000000   2.0000000
           37          38          39          40          41          42
    1   2.0000000   2.0000000   1.9999969   1.9999936   1.9999843   1.9998618
           43          44          45          46          47          48
    1   1.9997962   1.9995530   1.9982671   1.9981288   1.9980019   1.9965092
           49          50          51          52          53          54
    1   1.9943389   1.0051789   0.0034820   0.0014623   0.0014162   0.0014029
           55          56          57          58          59          60
    1   0.0011635   0.0007126   0.0001828   0.0000989   0.0000671   0.0000546
           61          62          63          64          65          66
    1   0.0000504   0.0000479   0.0000379   0.0000375   0.0000339   0.0000273
           67          68          69
    1   0.0000176   0.0000118   0.0000103
Natural Orbitals stored in FCHK

  Amplitudes : 
  
 | HOLE  | ALPHA      | BETA       | PART  |    AMPLITUDE 
--------------------------------------------------
 |       | 1111111110 | 1111111010 |       |     2.9338186605557E-01
 |       | 1111111110 | 1101111110 |       |     9.4875032508084E-01
--------------------------------------------------
*** Contributions RASCI wfn    Active:  98.86
                                 Hole:   0.02
                                 Part:   1.12

      Mulliken population analysis 
 ---------------------------------------------------
   Atom    Charge (a.u.)   Spin (a.u.)  
 ---------------------------------------------------
   1 Cu    0.892437        0.945563 
   2 Cl   -0.735402       -0.000139 
   3 Cl   -0.710816        0.027357 
   4 Cl   -0.710816        0.027357 
   5 Cl   -0.735402       -0.000139 
 ---------------------------------------------------
   Sum:   -2.000000        1.000000 
 ---------------------------------------------------
 
  
 NATURAL OCCUPATION NUMBERS (higher than 1.0E-05)
            1           2           3           4           5           6
    1   2.0000000   2.0000000   2.0000000   2.0000000   2.0000000   2.0000000
            7           8           9          10          11          12
    1   2.0000000   2.0000000   2.0000000   2.0000000   2.0000000   2.0000000
           13          14          15          16          17          18
    1   2.0000000   2.0000000   2.0000000   2.0000000   2.0000000   2.0000000
           19          20          21          22          23          24
    1   2.0000000   2.0000000   2.0000000   2.0000000   2.0000000   2.0000000
           25          26          27          28          29          30
    1   2.0000000   2.0000000   2.0000000   2.0000000   2.0000000   2.0000000
           31          32          33          34          35          36
    1   2.0000000   2.0000000   2.0000000   2.0000000   2.0000000   2.0000000
           37          38          39          40          41          42
    1   2.0000000   2.0000000   1.9999969   1.9999936   1.9999843   1.9998618
           43          44          45          46          47          48
    1   1.9997962   1.9995530   1.9982671   1.9981288   1.9980019   1.9965092
           49          50          51          52          53          54
    1   1.9943389   1.0051789   0.0034820   0.0014623   0.0014162   0.0014029
           55          56          57          58          59          60
    1   0.0011635   0.0007126   0.0001828   0.0000989   0.0000671   0.0000546
           61          62          63          64          65          66
    1   0.0000504   0.0000479   0.0000379   0.0000375   0.0000339   0.0000273
           67          68          69
    1   0.0000176   0.0000118   0.0000103
  
*** Unpaired Electrons
 Yamaguchi Nd:         1.05
 Head-Gordon Nu:       1.02
 Head-Gordon Nu_nl:    1.00
  
**************************************************
 RAS-CI total energy for state   4:  -3477.144955442027
  Excitation energy (eV) =  1.603569041773
  State symmetry: B2g   (D2h      )
  <S^2>      :  0.7500
  Dipole Moment:    0.0000 X    -0.0000 Y     0.0000 Z
  Trans. Moment:    0.0000 X    -0.0000 Y     0.0000 Z
  Strength   :  0.000000
  Natural transition orbitals ( 1 -> 4 ):
   e-/hole pair  1 alpha:  ampl =  0.011671 (  0.0%)   [10 : 11]
   e-/hole pair  2 alpha:  ampl =  0.010461 (  0.0%)   [9 : 12]
   e-/hole pair  1 beta :  ampl =  0.983675 ( 96.8%)   [10 : 11]
   e-/hole pair  2 beta :  ampl =  0.042112 (  0.2%)   [9 : 12]
   Sum of square amplitudes: 0.97

 NATURAL OCCUPATION NUMBERS (higher than 1.0E-05)
            1           2           3           4           5           6
    1   2.0000000   2.0000000   2.0000000   2.0000000   2.0000000   2.0000000
            7           8           9          10          11          12
    1   2.0000000   2.0000000   2.0000000   2.0000000   2.0000000   2.0000000
           13          14          15          16          17          18
    1   2.0000000   2.0000000   2.0000000   2.0000000   2.0000000   2.0000000
           19          20          21          22          23          24
    1   2.0000000   2.0000000   2.0000000   2.0000000   2.0000000   2.0000000
           25          26          27          28          29          30
    1   2.0000000   2.0000000   2.0000000   2.0000000   2.0000000   2.0000000
           31          32          33          34          35          36
    1   2.0000000   2.0000000   2.0000000   2.0000000   2.0000000   2.0000000
           37          38          39          40          41          42
    1   2.0000000   2.0000000   1.9999969   1.9999936   1.9999843   1.9998618
           43          44          45          46          47          48
    1   1.9997962   1.9995529   1.9982671   1.9981288   1.9980019   1.9965092
           49          50          51          52          53          54
    1   1.9943389   1.0051789   0.0034820   0.0014623   0.0014162   0.0014029
           55          56          57          58          59          60
    1   0.0011635   0.0007126   0.0001828   0.0000989   0.0000671   0.0000546
           61          62          63          64          65          66
    1   0.0000504   0.0000479   0.0000379   0.0000375   0.0000340   0.0000273
           67          68          69
    1   0.0000176   0.0000118   0.0000103
Natural Orbitals stored in FCHK

  Amplitudes : 
  
 | HOLE  | ALPHA      | BETA       | PART  |    AMPLITUDE 
--------------------------------------------------
 |       | 1111111110 | 1111110110 |       |    -2.9338186575287E-01
 |       | 1111111110 | 1011111110 |       |     9.4875032506980E-01
--------------------------------------------------
*** Contributions RASCI wfn    Active:  98.86
                                 Hole:   0.02
                                 Part:   1.12

      Mulliken population analysis 
 ---------------------------------------------------
   Atom    Charge (a.u.)   Spin (a.u.)  
 ---------------------------------------------------
   1 Cu    0.892437        0.945563 
   2 Cl   -0.710816        0.027357 
   3 Cl   -0.735402       -0.000139 
   4 Cl   -0.735402       -0.000139 
   5 Cl   -0.710816        0.027357 
 ---------------------------------------------------
   Sum:   -2.000000        1.000000 
 ---------------------------------------------------
 
  
 NATURAL OCCUPATION NUMBERS (higher than 1.0E-05)
            1           2           3           4           5           6
    1   2.0000000   2.0000000   2.0000000   2.0000000   2.0000000   2.0000000
            7           8           9          10          11          12
    1   2.0000000   2.0000000   2.0000000   2.0000000   2.0000000   2.0000000
           13          14          15          16          17          18
    1   2.0000000   2.0000000   2.0000000   2.0000000   2.0000000   2.0000000
           19          20          21          22          23          24
    1   2.0000000   2.0000000   2.0000000   2.0000000   2.0000000   2.0000000
           25          26          27          28          29          30
    1   2.0000000   2.0000000   2.0000000   2.0000000   2.0000000   2.0000000
           31          32          33          34          35          36
    1   2.0000000   2.0000000   2.0000000   2.0000000   2.0000000   2.0000000
           37          38          39          40          41          42
    1   2.0000000   2.0000000   1.9999969   1.9999936   1.9999843   1.9998618
           43          44          45          46          47          48
    1   1.9997962   1.9995529   1.9982671   1.9981288   1.9980019   1.9965092
           49          50          51          52          53          54
    1   1.9943389   1.0051789   0.0034820   0.0014623   0.0014162   0.0014029
           55          56          57          58          59          60
    1   0.0011635   0.0007126   0.0001828   0.0000989   0.0000671   0.0000546
           61          62          63          64          65          66
    1   0.0000504   0.0000479   0.0000379   0.0000375   0.0000340   0.0000273
           67          68          69
    1   0.0000176   0.0000118   0.0000103
  
*** Unpaired Electrons
 Yamaguchi Nd:         1.05
 Head-Gordon Nu:       1.02
 Head-Gordon Nu_nl:    1.00
  
**************************************************
 RAS-CI total energy for state   5:  -3477.135533015377
  Excitation energy (eV) =  1.859966316006
  State symmetry: Ag    (D2h      )
  <S^2>      :  0.7500
  Dipole Moment:    0.0000 X    -0.0000 Y    -0.0000 Z
  Trans. Moment:    0.0000 X     0.0000 Y     0.0000 Z
  Strength   :  0.000000
  Natural transition orbitals ( 1 -> 5 ):
   e-/hole pair  1 alpha:  ampl =  0.018496 (  0.0%)   [10 : 11]
   e-/hole pair  2 alpha:  ampl =  0.017116 (  0.0%)   [9 : 12]
   e-/hole pair  1 beta :  ampl =  0.985320 ( 97.1%)   [10 : 11]
   e-/hole pair  2 beta :  ampl =  0.043275 (  0.2%)   [9 : 12]
   Sum of square amplitudes: 0.97

 NATURAL OCCUPATION NUMBERS (higher than 1.0E-05)
            1           2           3           4           5           6
    1   2.0000000   2.0000000   2.0000000   2.0000000   2.0000000   2.0000000
            7           8           9          10          11          12
    1   2.0000000   2.0000000   2.0000000   2.0000000   2.0000000   2.0000000
           13          14          15          16          17          18
    1   2.0000000   2.0000000   2.0000000   2.0000000   2.0000000   2.0000000
           19          20          21          22          23          24
    1   2.0000000   2.0000000   2.0000000   2.0000000   2.0000000   2.0000000
           25          26          27          28          29          30
    1   2.0000000   2.0000000   2.0000000   2.0000000   2.0000000   2.0000000
           31          32          33          34          35          36
    1   2.0000000   2.0000000   2.0000000   2.0000000   2.0000000   2.0000000
           37          38          39          40          41          42
    1   2.0000000   2.0000000   1.9999928   1.9999859   1.9999030   1.9998233
           43          44          45          46          47          48
    1   1.9998233   1.9996234   1.9995449   1.9994552   1.9994552   1.9990648
           49          50          51          52          53          54
    1   1.9985870   1.0010258   0.0014976   0.0004102   0.0004102   0.0003415
           55          56          57          58          59          60
    1   0.0003320   0.0002804   0.0001359   0.0000512   0.0000512   0.0000451
           61          62          63          64          65
    1   0.0000265   0.0000242   0.0000175   0.0000122   0.0000122
Natural Orbitals stored in FCHK

  Amplitudes : 
  
 | HOLE  | ALPHA      | BETA       | PART  |    AMPLITUDE 
--------------------------------------------------
 |       | 1111111110 | 1110111110 |       |     9.6942736774167E-01
 |  34   | 1111111110 | 1111111110 |       |    -2.2830888412663E-01
--------------------------------------------------
*** Contributions RASCI wfn    Active:  94.01
                                 Hole:   5.44
                                 Part:   0.55

      Mulliken population analysis 
 ---------------------------------------------------
   Atom    Charge (a.u.)   Spin (a.u.)  
 ---------------------------------------------------
   1 Cu    0.938707        1.004370 
   2 Cl   -0.734677       -0.001092 
   3 Cl   -0.734677       -0.001092 
   4 Cl   -0.734677       -0.001092 
   5 Cl   -0.734677       -0.001092 
 ---------------------------------------------------
   Sum:   -2.000000        1.000000 
 ---------------------------------------------------
 
  
 NATURAL OCCUPATION NUMBERS (higher than 1.0E-05)
            1           2           3           4           5           6
    1   2.0000000   2.0000000   2.0000000   2.0000000   2.0000000   2.0000000
            7           8           9          10          11          12
    1   2.0000000   2.0000000   2.0000000   2.0000000   2.0000000   2.0000000
           13          14          15          16          17          18
    1   2.0000000   2.0000000   2.0000000   2.0000000   2.0000000   2.0000000
           19          20          21          22          23          24
    1   2.0000000   2.0000000   2.0000000   2.0000000   2.0000000   2.0000000
           25          26          27          28          29          30
    1   2.0000000   2.0000000   2.0000000   2.0000000   2.0000000   2.0000000
           31          32          33          34          35          36
    1   2.0000000   2.0000000   2.0000000   2.0000000   2.0000000   2.0000000
           37          38          39          40          41          42
    1   2.0000000   2.0000000   1.9999928   1.9999859   1.9999030   1.9998233
           43          44          45          46          47          48
    1   1.9998233   1.9996234   1.9995449   1.9994552   1.9994552   1.9990648
           49          50          51          52          53          54
    1   1.9985870   1.0010258   0.0014976   0.0004102   0.0004102   0.0003415
           55          56          57          58          59          60
    1   0.0003320   0.0002804   0.0001359   0.0000512   0.0000512   0.0000451
           61          62          63          64          65
    1   0.0000265   0.0000242   0.0000175   0.0000122   0.0000122
  
*** Unpaired Electrons
 Yamaguchi Nd:         1.02
 Head-Gordon Nu:       1.01
 Head-Gordon Nu_nl:    1.00
  
**************************************************
 RAS-CI total energy for state   6:  -3476.998533972166
  Excitation energy (eV) =  5.587899953132
  State symmetry: B3g   (D2h      )
  <S^2>      :  0.7500
  Dipole Moment:    0.0000 X    -0.0000 Y    -0.0000 Z
  Trans. Moment:    0.0000 X    -0.0000 Y    -0.0000 Z
  Strength   :  0.000000
  Natural transition orbitals ( 1 -> 6 ):
   e-/hole pair  1 alpha:  ampl =  0.012361 (  0.0%)   [10 : 11]
   e-/hole pair  2 alpha:  ampl =  0.003773 (  0.0%)   [9 : 12]
   e-/hole pair  1 beta :  ampl =  0.919795 ( 84.6%)   [10 : 11]
   e-/hole pair  2 beta :  ampl =  0.038809 (  0.2%)   [9 : 12]
   Sum of square amplitudes: 0.85

 NATURAL OCCUPATION NUMBERS (higher than 1.0E-05)
            1           2           3           4           5           6
    1   2.0000000   2.0000000   2.0000000   2.0000000   2.0000000   2.0000000
            7           8           9          10          11          12
    1   2.0000000   2.0000000   2.0000000   2.0000000   2.0000000   2.0000000
           13          14          15          16          17          18
    1   2.0000000   2.0000000   2.0000000   2.0000000   2.0000000   2.0000000
           19          20          21          22          23          24
    1   2.0000000   2.0000000   2.0000000   2.0000000   2.0000000   2.0000000
           25          26          27          28          29          30
    1   2.0000000   2.0000000   2.0000000   2.0000000   2.0000000   2.0000000
           31          32          33          34          35          36
    1   2.0000000   2.0000000   2.0000000   2.0000000   2.0000000   2.0000000
           37          38          39          40          41          42
    1   2.0000000   1.9999979   1.9999949   1.9999717   1.9998805   1.9997336
           43          44          45          46          47          48
    1   1.9996791   1.9989808   1.9926615   1.9915196   1.9914738   1.9780050
           49          50          51          52          53          54
    1   1.9740812   1.0134034   0.0265303   0.0084436   0.0082271   0.0072885
           55          56          57          58          59          60
    1   0.0072291   0.0011409   0.0005134   0.0004148   0.0001335   0.0001286
           61          62          63          64          65          66
    1   0.0000990   0.0000637   0.0000539   0.0000539   0.0000407   0.0000326
           67          68          69          70          71          72
    1   0.0000298   0.0000243   0.0000204   0.0000198   0.0000180   0.0000162
           73          74
    1   0.0000154   0.0000132
Natural Orbitals stored in FCHK

  Amplitudes : 
  
 | HOLE  | ALPHA      | BETA       | PART  |    AMPLITUDE 
--------------------------------------------------
 |       | 1111111110 | 1111111010 |       |     8.3680413905521E-01
 |       | 1111111110 | 1110111011 |       |     1.5105281498254E-01
 |       | 1111111110 | 1101111110 |       |    -2.9615633786441E-01
 |       | 1110111111 | 1111111010 |       |    -1.5396255031853E-01
--------------------------------------------------
*** Contributions RASCI wfn    Active:  84.08
                                 Hole:   0.12
                                 Part:  15.81

      Mulliken population analysis 
 ---------------------------------------------------
   Atom    Charge (a.u.)   Spin (a.u.)  
 ---------------------------------------------------
   1 Cu    0.161160        0.064313 
   2 Cl   -0.752389       -0.001527 
   3 Cl   -0.328191        0.469370 
   4 Cl   -0.328191        0.469370 
   5 Cl   -0.752389       -0.001527 
 ---------------------------------------------------
   Sum:   -2.000000        1.000000 
 ---------------------------------------------------
 
  
 NATURAL OCCUPATION NUMBERS (higher than 1.0E-05)
            1           2           3           4           5           6
    1   2.0000000   2.0000000   2.0000000   2.0000000   2.0000000   2.0000000
            7           8           9          10          11          12
    1   2.0000000   2.0000000   2.0000000   2.0000000   2.0000000   2.0000000
           13          14          15          16          17          18
    1   2.0000000   2.0000000   2.0000000   2.0000000   2.0000000   2.0000000
           19          20          21          22          23          24
    1   2.0000000   2.0000000   2.0000000   2.0000000   2.0000000   2.0000000
           25          26          27          28          29          30
    1   2.0000000   2.0000000   2.0000000   2.0000000   2.0000000   2.0000000
           31          32          33          34          35          36
    1   2.0000000   2.0000000   2.0000000   2.0000000   2.0000000   2.0000000
           37          38          39          40          41          42
    1   2.0000000   1.9999979   1.9999949   1.9999717   1.9998805   1.9997336
           43          44          45          46          47          48
    1   1.9996791   1.9989808   1.9926615   1.9915196   1.9914738   1.9780050
           49          50          51          52          53          54
    1   1.9740812   1.0134034   0.0265303   0.0084436   0.0082271   0.0072885
           55          56          57          58          59          60
    1   0.0072291   0.0011409   0.0005134   0.0004148   0.0001335   0.0001286
           61          62          63          64          65          66
    1   0.0000990   0.0000637   0.0000539   0.0000539   0.0000407   0.0000326
           67          68          69          70          71          72
    1   0.0000298   0.0000243   0.0000204   0.0000198   0.0000180   0.0000162
           73          74
    1   0.0000154   0.0000132
  
*** Unpaired Electrons
 Yamaguchi Nd:         1.27
 Head-Gordon Nu:       1.12
 Head-Gordon Nu_nl:    1.01
  
**************************************************
 RAS-CI total energy for state   7:  -3476.998533970974
  Excitation energy (eV) =  5.587899985554
  State symmetry: B2g   (D2h      )
  <S^2>      :  0.7500
  Dipole Moment:   -0.0000 X    -0.0000 Y     0.0000 Z
  Trans. Moment:   -0.0000 X     0.0000 Y    -0.0000 Z
  Strength   :  0.000000
  Natural transition orbitals ( 1 -> 7 ):
   e-/hole pair  1 alpha:  ampl =  0.012343 (  0.0%)   [10 : 11]
   e-/hole pair  2 alpha:  ampl =  0.003773 (  0.0%)   [9 : 12]
   e-/hole pair  1 beta :  ampl =  0.919796 ( 84.6%)   [10 : 11]
   e-/hole pair  2 beta :  ampl =  0.038805 (  0.2%)   [9 : 12]
   Sum of square amplitudes: 0.85

 NATURAL OCCUPATION NUMBERS (higher than 1.0E-05)
            1           2           3           4           5           6
    1   2.0000000   2.0000000   2.0000000   2.0000000   2.0000000   2.0000000
            7           8           9          10          11          12
    1   2.0000000   2.0000000   2.0000000   2.0000000   2.0000000   2.0000000
           13          14          15          16          17          18
    1   2.0000000   2.0000000   2.0000000   2.0000000   2.0000000   2.0000000
           19          20          21          22          23          24
    1   2.0000000   2.0000000   2.0000000   2.0000000   2.0000000   2.0000000
           25          26          27          28          29          30
    1   2.0000000   2.0000000   2.0000000   2.0000000   2.0000000   2.0000000
           31          32          33          34          35          36
    1   2.0000000   2.0000000   2.0000000   2.0000000   2.0000000   2.0000000
           37          38          39          40          41          42
    1   2.0000000   1.9999980   1.9999949   1.9999717   1.9998805   1.9997335
           43          44          45          46          47          48
    1   1.9996791   1.9989800   1.9926616   1.9915201   1.9914741   1.9780050
           49          50          51          52          53          54
    1   1.9740816   1.0134033   0.0265303   0.0084433   0.0082272   0.0072884
           55          56          57          58          59          60
    1   0.0072292   0.0011411   0.0005133   0.0004149   0.0001336   0.0001286
           61          62          63          64          65          66
    1   0.0000990   0.0000637   0.0000539   0.0000538   0.0000407   0.0000326
           67          68          69          70          71          72
    1   0.0000298   0.0000243   0.0000204   0.0000198   0.0000180   0.0000162
           73          74
    1   0.0000154   0.0000132
Natural Orbitals stored in FCHK

  Amplitudes : 
  
 | HOLE  | ALPHA      | BETA       | PART  |    AMPLITUDE 
--------------------------------------------------
 |       | 1111111110 | 1111110110 |       |     8.3680417085052E-01
 |       | 1111111110 | 1110110111 |       |     1.5104868765463E-01
 |       | 1111111110 | 1011111110 |       |     2.9615634500295E-01
 |       | 1110111111 | 1111110110 |       |    -1.5397907062460E-01
--------------------------------------------------
*** Contributions RASCI wfn    Active:  84.08
                                 Hole:   0.12
                                 Part:  15.81

      Mulliken population analysis 
 ---------------------------------------------------
   Atom    Charge (a.u.)   Spin (a.u.)  
 ---------------------------------------------------
   1 Cu    0.161161        0.064313 
   2 Cl   -0.328191        0.469369 
   3 Cl   -0.752390       -0.001525 
   4 Cl   -0.752390       -0.001525 
   5 Cl   -0.328191        0.469369 
 ---------------------------------------------------
   Sum:   -2.000000        1.000000 
 ---------------------------------------------------
 
  
 NATURAL OCCUPATION NUMBERS (higher than 1.0E-05)
            1           2           3           4           5           6
    1   2.0000000   2.0000000   2.0000000   2.0000000   2.0000000   2.0000000
            7           8           9          10          11          12
    1   2.0000000   2.0000000   2.0000000   2.0000000   2.0000000   2.0000000
           13          14          15          16          17          18
    1   2.0000000   2.0000000   2.0000000   2.0000000   2.0000000   2.0000000
           19          20          21          22          23          24
    1   2.0000000   2.0000000   2.0000000   2.0000000   2.0000000   2.0000000
           25          26          27          28          29          30
    1   2.0000000   2.0000000   2.0000000   2.0000000   2.0000000   2.0000000
           31          32          33          34          35          36
    1   2.0000000   2.0000000   2.0000000   2.0000000   2.0000000   2.0000000
           37          38          39          40          41          42
    1   2.0000000   1.9999980   1.9999949   1.9999717   1.9998805   1.9997335
           43          44          45          46          47          48
    1   1.9996791   1.9989800   1.9926616   1.9915201   1.9914741   1.9780050
           49          50          51          52          53          54
    1   1.9740816   1.0134033   0.0265303   0.0084433   0.0082272   0.0072884
           55          56          57          58          59          60
    1   0.0072292   0.0011411   0.0005133   0.0004149   0.0001336   0.0001286
           61          62          63          64          65          66
    1   0.0000990   0.0000637   0.0000539   0.0000538   0.0000407   0.0000326
           67          68          69          70          71          72
    1   0.0000298   0.0000243   0.0000204   0.0000198   0.0000180   0.0000162
           73          74
    1   0.0000154   0.0000132
  
*** Unpaired Electrons
 Yamaguchi Nd:         1.27
 Head-Gordon Nu:       1.12
 Head-Gordon Nu_nl:    1.01
  
**************************************************
 RAS-CI total energy for state   8:  -3476.993864972825
  Excitation energy (eV) =  5.714949889278
  State symmetry: Ag    (D2h      )
  <S^2>      :  0.7500
  Dipole Moment:   -0.0000 X     0.0000 Y    -0.0000 Z
  Trans. Moment:    0.0000 X    -0.0000 Y    -0.0000 Z
  Strength   :  0.000000
  Natural transition orbitals ( 1 -> 8 ):
   e-/hole pair  1 alpha:  ampl =  0.134617 (  1.8%)   [10 : 11]
   e-/hole pair  2 alpha:  ampl =  0.062945 (  0.4%)   [9 : 12]
   e-/hole pair  1 beta :  ampl =  0.916568 ( 84.0%)   [10 : 11]
   e-/hole pair  2 beta :  ampl =  0.121820 (  1.5%)   [9 : 12]
   Sum of square amplitudes: 0.91

 NATURAL OCCUPATION NUMBERS (higher than 1.0E-05)
            1           2           3           4           5           6
    1   2.0000000   2.0000000   2.0000000   2.0000000   2.0000000   2.0000000
            7           8           9          10          11          12
    1   2.0000000   2.0000000   2.0000000   2.0000000   2.0000000   2.0000000
           13          14          15          16          17          18
    1   2.0000000   2.0000000   2.0000000   2.0000000   2.0000000   2.0000000
           19          20          21          22          23          24
    1   2.0000000   2.0000000   2.0000000   2.0000000   2.0000000   2.0000000
           25          26          27          28          29          30
    1   2.0000000   2.0000000   2.0000000   2.0000000   2.0000000   2.0000000
           31          32          33          34          35          36
    1   2.0000000   2.0000000   2.0000000   2.0000000   2.0000000   2.0000000
           37          38          39          40          41          42
    1   2.0000000   1.9999757   1.9999146   1.9998644   1.9996509   1.9993016
           43          44          45          46          47          48
    1   1.9993016   1.9986323   1.9874017   1.9874017   1.9860169   1.9455315
           49          50          51          52          53          54
    1   1.9279463   1.0651589   0.0544473   0.0138924   0.0124630   0.0124630
           55          56          57          58          59          60
    1   0.0071250   0.0015512   0.0003916   0.0003262   0.0003262   0.0001758
           61          62          63          64          65          66
    1   0.0000965   0.0000965   0.0000959   0.0000728   0.0000413   0.0000369
           67          68          69          70          71          72
    1   0.0000336   0.0000326   0.0000299   0.0000299   0.0000263   0.0000176
           73          74
    1   0.0000113   0.0000112
Natural Orbitals stored in FCHK

  Amplitudes : 
  
 | HOLE  | ALPHA      | BETA       | PART  |    AMPLITUDE 
--------------------------------------------------
 |       | 1111111110 | 1111111100 |       |    -2.4048807222870E-01
 |       | 1111111110 | 1111101110 |       |     8.6002116430566E-01
 |       | 1111111110 | 1110101111 |       |     1.5020504109550E-01
 |       | 1110111111 | 1111101110 |       |    -1.5973866783478E-01
--------------------------------------------------
*** Contributions RASCI wfn    Active:  85.90
                                 Hole:   0.55
                                 Part:  13.55

      Mulliken population analysis 
 ---------------------------------------------------
   Atom    Charge (a.u.)   Spin (a.u.)  
 ---------------------------------------------------
   1 Cu    0.309905        0.239510 
   2 Cl   -0.577476        0.190123 
   3 Cl   -0.577476        0.190123 
   4 Cl   -0.577476        0.190123 
   5 Cl   -0.577476        0.190123 
 ---------------------------------------------------
   Sum:   -2.000000        1.000000 
 ---------------------------------------------------
 
  
 NATURAL OCCUPATION NUMBERS (higher than 1.0E-05)
            1           2           3           4           5           6
    1   2.0000000   2.0000000   2.0000000   2.0000000   2.0000000   2.0000000
            7           8           9          10          11          12
    1   2.0000000   2.0000000   2.0000000   2.0000000   2.0000000   2.0000000
           13          14          15          16          17          18
    1   2.0000000   2.0000000   2.0000000   2.0000000   2.0000000   2.0000000
           19          20          21          22          23          24
    1   2.0000000   2.0000000   2.0000000   2.0000000   2.0000000   2.0000000
           25          26          27          28          29          30
    1   2.0000000   2.0000000   2.0000000   2.0000000   2.0000000   2.0000000
           31          32          33          34          35          36
    1   2.0000000   2.0000000   2.0000000   2.0000000   2.0000000   2.0000000
           37          38          39          40          41          42
    1   2.0000000   1.9999757   1.9999146   1.9998644   1.9996509   1.9993016
           43          44          45          46          47          48
    1   1.9993016   1.9986323   1.9874017   1.9874017   1.9860169   1.9455315
           49          50          51          52          53          54
    1   1.9279463   1.0651589   0.0544473   0.0138924   0.0124630   0.0124630
           55          56          57          58          59          60
    1   0.0071250   0.0015512   0.0003916   0.0003262   0.0003262   0.0001758
           61          62          63          64          65          66
    1   0.0000965   0.0000965   0.0000959   0.0000728   0.0000413   0.0000369
           67          68          69          70          71          72
    1   0.0000336   0.0000326   0.0000299   0.0000299   0.0000263   0.0000176
           73          74
    1   0.0000113   0.0000112
  
*** Unpaired Electrons
 Yamaguchi Nd:         1.53
 Head-Gordon Nu:       1.21
 Head-Gordon Nu_nl:    1.04
  
**************************************************
 RAS-CI total energy for state   9:  -3476.965358966193
  Excitation energy (eV) =  6.490637795522
  State symmetry: Ag    (D2h      )
  <S^2>      :  0.7500
  Dipole Moment:    0.0000 X     0.0000 Y    -0.0000 Z
  Trans. Moment:   -0.0000 X     0.0000 Y     0.0000 Z
  Strength   :  0.000000
  Natural transition orbitals ( 1 -> 9 ):
   e-/hole pair  1 alpha:  ampl =  0.890491 ( 79.3%)   [10 : 11]
   e-/hole pair  2 alpha:  ampl =  0.035173 (  0.1%)   [9 : 12]
   e-/hole pair  1 beta :  ampl =  0.026947 (  0.1%)   [10 : 11]
   e-/hole pair  2 beta :  ampl =  0.024212 (  0.1%)   [9 : 12]
   Sum of square amplitudes: 0.80

 NATURAL OCCUPATION NUMBERS (higher than 1.0E-05)
            1           2           3           4           5           6
    1   2.0000000   2.0000000   2.0000000   2.0000000   2.0000000   2.0000000
            7           8           9          10          11          12
    1   2.0000000   2.0000000   2.0000000   2.0000000   2.0000000   2.0000000
           13          14          15          16          17          18
    1   2.0000000   2.0000000   2.0000000   2.0000000   2.0000000   2.0000000
           19          20          21          22          23          24
    1   2.0000000   2.0000000   2.0000000   2.0000000   2.0000000   2.0000000
           25          26          27          28          29          30
    1   2.0000000   2.0000000   2.0000000   2.0000000   2.0000000   2.0000000
           31          32          33          34          35          36
    1   2.0000000   2.0000000   2.0000000   2.0000000   2.0000000   2.0000000
           37          38          39          40          41          42
    1   2.0000000   1.9999944   1.9999779   1.9998862   1.9995980   1.9992377
           43          44          45          46          47          48
    1   1.9992377   1.9991772   1.9944032   1.9911322   1.9910166   1.9910166
           49          50          51          52          53          54
    1   1.8383134   0.9974951   0.1778232   0.0049272   0.0047973   0.0043524
           55          56          57          58          59          60
    1   0.0043524   0.0012712   0.0003416   0.0002999   0.0002999   0.0001935
           61          62          63          64          65          66
    1   0.0001128   0.0001128   0.0000846   0.0000645   0.0000635   0.0000615
           67          68          69          70          71          72
    1   0.0000368   0.0000368   0.0000363   0.0000359   0.0000324   0.0000291
           73          74          75
    1   0.0000178   0.0000163   0.0000163
Natural Orbitals stored in FCHK

  Amplitudes : 
  
 | HOLE  | ALPHA      | BETA       | PART  |    AMPLITUDE 
--------------------------------------------------
 |       | 1111111101 | 1111111100 |       |     6.0914858306511E-01
 |       | 1111111101 | 1111101110 |       |     5.3981795972729E-01
 |       | 1111101111 | 1111111100 |       |     5.2216804048119E-01
 |       | 1111111100 | 1111111100 |  52   |     1.0982840589715E-01
--------------------------------------------------
*** Contributions RASCI wfn    Active:  94.70
                                 Hole:   0.25
                                 Part:   5.06

      Mulliken population analysis 
 ---------------------------------------------------
   Atom    Charge (a.u.)   Spin (a.u.)  
 ---------------------------------------------------
   1 Cu   -0.138583        1.075221 
   2 Cl   -0.465354       -0.018805 
   3 Cl   -0.465354       -0.018805 
   4 Cl   -0.465354       -0.018805 
   5 Cl   -0.465354       -0.018805 
 ---------------------------------------------------
   Sum:   -2.000000        1.000000 
 ---------------------------------------------------
 
  
 NATURAL OCCUPATION NUMBERS (higher than 1.0E-05)
            1           2           3           4           5           6
    1   2.0000000   2.0000000   2.0000000   2.0000000   2.0000000   2.0000000
            7           8           9          10          11          12
    1   2.0000000   2.0000000   2.0000000   2.0000000   2.0000000   2.0000000
           13          14          15          16          17          18
    1   2.0000000   2.0000000   2.0000000   2.0000000   2.0000000   2.0000000
           19          20          21          22          23          24
    1   2.0000000   2.0000000   2.0000000   2.0000000   2.0000000   2.0000000
           25          26          27          28          29          30
    1   2.0000000   2.0000000   2.0000000   2.0000000   2.0000000   2.0000000
           31          32          33          34          35          36
    1   2.0000000   2.0000000   2.0000000   2.0000000   2.0000000   2.0000000
           37          38          39          40          41          42
    1   2.0000000   1.9999944   1.9999779   1.9998862   1.9995980   1.9992377
           43          44          45          46          47          48
    1   1.9992377   1.9991772   1.9944032   1.9911322   1.9910166   1.9910166
           49          50          51          52          53          54
    1   1.8383134   0.9974951   0.1778232   0.0049272   0.0047973   0.0043524
           55          56          57          58          59          60
    1   0.0043524   0.0012712   0.0003416   0.0002999   0.0002999   0.0001935
           61          62          63          64          65          66
    1   0.0001128   0.0001128   0.0000846   0.0000645   0.0000635   0.0000615
           67          68          69          70          71          72
    1   0.0000368   0.0000368   0.0000363   0.0000359   0.0000324   0.0000291
           73          74          75
    1   0.0000178   0.0000163   0.0000163
  
*** Unpaired Electrons
 Yamaguchi Nd:         1.73
 Head-Gordon Nu:       1.39
 Head-Gordon Nu_nl:    1.19
  
**************************************************
 RAS-CI total energy for state  10:  -3476.960240900406
  Excitation energy (eV) =  6.629907451381
  State symmetry: B1g   (D2h      )
  <S^2>      :  0.7500
  Dipole Moment:    0.0000 X     0.0000 Y     0.0000 Z
  Trans. Moment:    0.0000 X     0.0000 Y     0.0000 Z
  Strength   :  0.000000
  Natural transition orbitals ( 1 -> 10 ):
   e-/hole pair  1 alpha:  ampl =  0.012254 (  0.0%)   [10 : 11]
   e-/hole pair  2 alpha:  ampl =  0.003990 (  0.0%)   [9 : 12]
   e-/hole pair  1 beta :  ampl =  0.919718 ( 84.6%)   [10 : 11]
   e-/hole pair  2 beta :  ampl =  0.060090 (  0.4%)   [9 : 12]
   Sum of square amplitudes: 0.85

 NATURAL OCCUPATION NUMBERS (higher than 1.0E-05)
            1           2           3           4           5           6
    1   2.0000000   2.0000000   2.0000000   2.0000000   2.0000000   2.0000000
            7           8           9          10          11          12
    1   2.0000000   2.0000000   2.0000000   2.0000000   2.0000000   2.0000000
           13          14          15          16          17          18
    1   2.0000000   2.0000000   2.0000000   2.0000000   2.0000000   2.0000000
           19          20          21          22          23          24
    1   2.0000000   2.0000000   2.0000000   2.0000000   2.0000000   2.0000000
           25          26          27          28          29          30
    1   2.0000000   2.0000000   2.0000000   2.0000000   2.0000000   2.0000000
           31          32          33          34          35          36
    1   2.0000000   2.0000000   2.0000000   2.0000000   2.0000000   2.0000000
           37          38          39          40          41          42
    1   2.0000000   1.9999978   1.9999797   1.9998891   1.9996225   1.9995489
           43          44          45          46          47          48
    1   1.9995489   1.9917469   1.9917469   1.9907618   1.9835471   1.9798479
           49          50          51          52          53          54
    1   1.9755867   1.0216840   0.0311201   0.0082014   0.0082014   0.0077473
           55          56          57          58          59          60
    1   0.0070551   0.0030772   0.0001594   0.0001594   0.0001452   0.0000945
           61          62          63          64          65          66
    1   0.0000505   0.0000505   0.0000505   0.0000420   0.0000412   0.0000372
           67          68          69          70          71          72
    1   0.0000288   0.0000288   0.0000282   0.0000180   0.0000144   0.0000135
           73          74          75
    1   0.0000125   0.0000125   0.0000109
Natural Orbitals stored in FCHK

  Amplitudes : 
  
 | HOLE  | ALPHA      | BETA       | PART  |    AMPLITUDE 
--------------------------------------------------
 |       | 1111111110 | 1111011110 |       |     8.3682919825574E-01
 |       | 1111111110 | 1110011111 |       |     1.5045941913610E-01
 |       | 1111111110 | 0111111110 |       |    -3.0231868097497E-01
 |       | 1110111111 | 1111011110 |       |    -1.5158710130719E-01
 |       | 0111111110 | 1111011110 |  60   |     1.0136659121488E-01
--------------------------------------------------
*** Contributions RASCI wfn    Active:  83.74
                                 Hole:   1.02
                                 Part:  15.24

      Mulliken population analysis 
 ---------------------------------------------------
   Atom    Charge (a.u.)   Spin (a.u.)  
 ---------------------------------------------------
   1 Cu    0.154097        0.046072 
   2 Cl   -0.538524        0.238482 
   3 Cl   -0.538524        0.238482 
   4 Cl   -0.538524        0.238482 
   5 Cl   -0.538524        0.238482 
 ---------------------------------------------------
   Sum:   -2.000000        1.000000 
 ---------------------------------------------------
 
  
 NATURAL OCCUPATION NUMBERS (higher than 1.0E-05)
            1           2           3           4           5           6
    1   2.0000000   2.0000000   2.0000000   2.0000000   2.0000000   2.0000000
            7           8           9          10          11          12
    1   2.0000000   2.0000000   2.0000000   2.0000000   2.0000000   2.0000000
           13          14          15          16          17          18
    1   2.0000000   2.0000000   2.0000000   2.0000000   2.0000000   2.0000000
           19          20          21          22          23          24
    1   2.0000000   2.0000000   2.0000000   2.0000000   2.0000000   2.0000000
           25          26          27          28          29          30
[...]
   102   -5.802275466779e-13
   103    1.090203694097e-02
   104   -2.447251215997e-16
   105   -3.947635628095e-14
   106   -3.573660348539e-02
   107   -9.098586467582e-12
   108    6.410348025027e-02
   109    3.056567395189e-15
   110   -1.299058297026e-13
   111   -1.294332131021e-01
   112   -4.840010336959e-11
   113   -1.162504159454e-15
   114   -2.487225920014e-13
   115   -1.817018819203e-04
   116   -3.698677215804e-15
   117   -9.750999652123e-17
   118   -1.794618707113e-12
   119    6.077829798980e-03
   120   -1.444598305982e-02
   121   -7.532538365419e-03
   122    9.426609114294e-02
   123   -2.874061242702e-01
   124    2.239177862637e-01
   125    2.703076651400e-11
   126    7.760510352261e-02
   127    5.091201927689e-14
   128    7.610643018574e-12
   129    1.819627969063e-02
   130    4.938087573324e-15
   131   -1.518452898142e-11
   132   -1.972029215923e-02
   133    1.539551103279e-14
   134   -1.710104557962e-10
   135   -5.559747737005e-01
   136   -4.423941319716e-13
   137    1.874776167643e-10
   138    6.391517382930e-01
   139    6.050915630723e-13
   140   -1.090203689748e-02
   141    1.121814066419e-15
   142   -4.514871763605e-14
   143    3.573660349982e-02
   144    3.815749799463e-12
   145   -6.410348014190e-02
   146    3.842539927086e-15
   147   -1.461115772136e-13
   148    1.294332130986e-01
   149    1.533459470515e-11
   150    1.680283427842e-15
   151   -3.079342336676e-13
   152   -1.817018861032e-04
   153    3.069058219212e-15
   154    1.345721909963e-16
   155    4.312774096182e-13
   156    6.077829793648e-03
   157    2.866056350581e-12
   158   -5.322044888123e-14
   159   -1.896960366565e-11
   160    6.026010246352e-11
   161    1.081804784642e-10
   162   -2.897179718353e-11
   163   -7.410554662066e-02
   164   -7.405613423279e-15
   165   -5.550978079971e-12
   166   -1.884602213489e-02
   167   -2.865131927276e-16
   168    2.879139635037e-12
   169    2.773741695657e-02
   170   -3.802108767945e-15
   171    2.478544591789e-10
   172    4.959247196546e-01
   173    6.833402421286e-14
   174   -3.292163763824e-10
   175   -4.929913073125e-01
   176   -9.944789272765e-14
   177   -2.166866425873e-11
   178    6.213762260945e-15
   179    2.346565878796e-15
   180    2.131365570146e-11
   181   -4.140733831562e-02
   182   -3.569163020689e-11
   183    2.003242622726e-14
   184   -1.171136276069e-14
   185    3.094365735867e-11
   186   -1.841182066003e-01
   187    3.176729313689e-16
   188    2.921704599177e-12
   189    1.412829633070e-03
   190    8.349866979416e-16
   191   -5.765813335576e-16
   192   -2.185877347183e-12
   193   -4.490643973689e-03
Sym=X
Ene= 0.845943
Spin=Alpha
Occup=0
     1    6.170689640550e-16
     2   -1.530648075000e-15
     3    5.989986870199e-15
     4    5.055742324504e-16
     5    4.338396666031e-14
     6   -2.035317635848e-14
     7    1.190973965222e-14
     8   -1.253614277490e-15
     9    1.286707601972e-13
    10   -3.455675855705e-14
    11    3.665548895713e-15
    12   -3.381297079725e-13
    13    8.685354151035e-16
    14    6.035044057918e-16
    15   -3.087628545755e-13
    16   -8.210513490634e-14
    17    1.563160845131e-14
    18    3.876067828599e-12
    19    3.303900572178e-15
    20   -5.692154824283e-02
    21    6.793454687681e-13
    22    2.865816054459e-15
    23    1.049328791456e-15
    24    4.228061197380e-15
    25   -6.254928854667e-02
    26    7.603709328841e-13
    27    4.330950643587e-15
    28    2.819940752274e-15
    29   -2.014699914651e-14
    30    2.014686342916e-01
    31   -2.695108025641e-12
    32   -2.252995961086e-14
    33   -1.121454072673e-14
    34    3.594306727236e-14
    35    3.367262943613e-01
    36    5.076078446464e-12
    37    7.315394997102e-14
    38   -1.697587530357e-14
    39    1.717831106400e-16
    40    5.560457716836e-16
    41   -8.605765484277e-17
    42   -2.814882580446e-15
    43   -3.972793542099e-15
    44   -1.838477029789e-15
    45   -4.639770677609e-16
    46   -6.384081958042e-15
    47   -3.561472207463e-15
    48    4.168231414910e-14
    49   -1.240472916936e-13
    50    7.496798409336e-14
    51   -3.511254970985e-14
    52   -3.367002775300e-15
    53   -8.927600671073e-02
    54   -8.254152412652e-15
    55   -1.777850188835e-15
    56   -8.191177607713e-03
    57    1.030831476102e-14
    58    4.181823699662e-15
    59   -2.871985844980e-02
    60    2.491365189300e-13
    61    1.866482611126e-14
    62    7.835106920956e-01
    63   -2.851762444160e-13
    64   -1.643145950836e-14
    65   -1.065536232576e+00
    66    1.407329354494e-15
    67   -6.687300350794e-02
    68    2.575322767540e-13
    69   -1.718123756918e-14
    70    3.820074233399e-15
    71   -2.544016889177e-14
    72   -2.357181100588e-01
    73    1.741003174960e-13
    74   -6.122262433343e-14
    75    1.731214757986e-14
    76   -2.222611934793e-03
    77   -2.960721053114e-15
    78   -3.429977748615e-16
    79    3.430090267767e-03
    80   -1.195029318557e-13
    81    1.956896503363e-15
    82    4.315831722171e-17
    83    2.069352777457e-15
    84    9.825700899009e-16
    85   -1.352734610009e-14
    86    3.902791352484e-14
    87    4.956673016311e-15
    88    4.577794281761e-14
    89    1.198385800393e-14
    90    2.901290319102e-13
    91    1.050921532123e-14
    92    2.627773101276e-15
    93    3.271835927188e-13
    94   -1.332387520732e-14
    95   -2.182806479091e-15
    96   -1.916520761536e-12
    97   -3.162704111826e-13
    98   -9.207835246091e-14
    99    1.882161093647e-12
   100    3.291870831582e-13
   101    1.094781413480e-13
   102   -1.667777027592e-12
   103   -5.748398957277e-16
   104   -4.126283159127e-03
   105    7.797443246638e-13
   106   -9.401219651604e-15
   107   -1.771703126278e-14
   108    9.885698756793e-15
   109   -3.846726035808e-02
   110    2.967473489157e-12
   111   -2.556998846874e-14
   112   -7.999102067303e-14
   113    6.539647295911e-14
   114   -7.774563276096e-16
   115   -7.894737947740e-16
   116   -6.560724186144e-15
   117    8.522449681647e-04
   118   -1.581661913087e-15
   119    2.036722571828e-16
   120   -7.213424971854e-16
   121   -4.129484033044e-16
   122    4.804800816844e-15
   123   -1.619906478536e-14
   124    4.650827345053e-14
   125    3.640314389458e-14
   126   -1.412424875888e-15
   127    1.700237173274e-13
   128    9.206088990249e-15
   129   -1.682170659512e-16
   130   -3.973670351098e-13
   131   -1.309702504884e-14
   132   -4.853827902534e-16
   133    2.613400815199e-12
   134   -2.469782980527e-13
   135    1.849951654338e-14
   136   -7.366218746085e-12
   137    2.496643617326e-13
   138   -2.916559258293e-14
   139    8.387623928741e-12
   140   -3.718186775189e-15
   141   -4.126283158337e-03
   142    6.837932997605e-13
   143   -1.549024762904e-15
   144    1.921211479002e-14
   145   -7.717361877597e-15
   146   -3.846726035486e-02
   147    2.220695849431e-12
   148    4.797971398068e-15
   149    9.129189658697e-14
   150    1.326315359623e-13
   151   -1.300674270619e-15
   152    8.365893227484e-16
   153   -9.784707766247e-15
   154   -8.522449680573e-04
   155   -2.254557751604e-15
   156    6.114398842658e-16
   157    7.784381056884e-15
   158    4.343145691860e-15
   159   -5.067821027450e-14
   160    1.510738960812e-13
   161   -1.288836898749e-13
   162   -3.988362632172e-14
   163   -1.246943604717e-14
   164    8.927600670731e-02
   165   -1.037553512798e-14
   166   -2.845158100694e-15
   167    8.191177608043e-03
   168    1.632790865974e-14
   169    2.132586583419e-15
   170    2.871985844800e-02
   171    2.672843779187e-13
   172    9.206308940671e-14
   173   -7.835106920681e-01
   174   -3.052884604456e-13
   175   -1.023806647686e-13
   176    1.065536232545e+00
   177    7.249158950270e-15
   178   -6.687300350723e-02
   179   -8.085871382180e-13
   180    2.003392955076e-14
   181   -1.693415124785e-15
   182    5.118450547966e-14
   183   -2.357181100541e-01
   184   -9.132208877993e-13
   185    7.131176240325e-14
   186   -9.344372616726e-15
   187    2.222611934705e-03
   188   -3.361296850966e-15
   189    2.509093675548e-16
   190   -3.430090267729e-03
   191   -3.810915341976e-13
   192    3.066841150395e-15
   193   -4.860235717270e-16
Sym=X
Ene= 0.845943
Spin=Alpha
Occup=0
     1   -1.375952628705e-16
     2    4.384757479513e-16
     3   -1.023601343319e-15
     4   -1.380364372757e-15
     5    5.726141005509e-15
     6   -1.743123760247e-15
     7   -2.022865088932e-15
     8   -1.435535733475e-14
     9    1.349490242186e-12
    10    5.817673767377e-15
    11    4.141790939554e-14
    12   -3.652284573514e-12
    13    1.400742312484e-15
    14    2.749693166446e-16
    15   -2.830146980622e-12
    16   -7.845117102724e-15
    17    8.178421532182e-14
    18    3.719165769272e-11
    19   -6.365976074886e-16
    20   -5.507955203043e-13
    21    5.692154824266e-02
    22   -1.985866813063e-15
    23    2.123385858293e-15
    24   -1.395035939175e-15
    25   -6.281156150756e-13
    26    6.254928854648e-02
    27   -1.718727149612e-15
    28    5.755214267753e-15
    29    5.516604460173e-15
    30    2.289779477138e-12
    31   -2.014686342914e-01
    32    7.270158109412e-15
    33   -2.460692158836e-14
    34   -5.400183711947e-15
    35   -5.684508419534e-12
    36   -3.367262943620e-01
    37   -3.642220703240e-14
    38   -4.889735069847e-14
    39    3.716661130894e-14
    40   -1.318712584999e-16
    41   -1.023896943414e-15
    42    1.650950951812e-13
    43   -1.159599247253e-15
    44    4.437057942411e-16
    45   -2.197010625272e-15
    46    8.115208946848e-16
    47    4.804032888612e-16
    48   -5.083417787972e-15
    49    1.188450408654e-14
    50    8.551688275765e-15
    51    4.634022511364e-15
    52   -3.036673275232e-14
    53   -1.377491870569e-11
    54    8.799271259154e-16
    55   -7.403508343206e-15
    56   -2.104962038008e-12
    57   -3.837200793679e-16
    58    1.158542317953e-14
    59   -1.320783760139e-13
    60   -3.529812458890e-14
    61    1.973887418084e-13
    62    1.089396906018e-10
    63    3.301987620005e-14
    64   -1.758927618308e-13
    65   -1.308873009975e-10
    66    2.406138865402e-15
    67   -6.182318545989e-12
    68    4.126283158707e-03
    69    1.800383575428e-15
    70    2.733140287371e-14
    71    8.108822197360e-15
    72   -2.752070793477e-11
    73    3.846726035628e-02
    74    8.051932372222e-15
    75    1.135282590479e-13
    76   -5.040670571915e-13
    77   -4.457987710945e-16
    78    9.868058242289e-16
    79    5.549744691580e-13
    80   -8.522449680948e-04
    81   -3.506000995780e-16
    82   -3.153213423194e-15
    83    7.575770495696e-15
    84    4.117256288232e-15
    85   -4.909310917034e-14
    86    1.492566288685e-13
    87   -1.283617568176e-13
    88    8.010607674856e-15
    89    4.291488759364e-14
    90    8.927600671266e-02
    91    1.352027963278e-15
    92    1.091706785166e-14
    93    8.191177608405e-03
    94    4.451154568800e-18
    95   -1.536191214504e-14
    96    2.871985844926e-02
    97   -6.201421876036e-14
    98   -2.957488058008e-13
    99   -7.835106921134e-01
   100    8.091235042149e-14
   101    3.401613059148e-13
   102    1.065536232601e+00
   103    4.537968695477e-15
   104    2.572243633370e-13
   105    6.687300351180e-02
   106   -1.725409647291e-14
   107    4.355686457820e-15
   108    4.439011241441e-14
   109    8.146608387882e-14
   110    2.357181100761e-01
   111   -6.455441772953e-14
   112    1.918667071473e-14
   113    2.222611935282e-03
   114    6.602656805270e-16
   115    1.999970524240e-15
   116    3.430090267788e-03
   117   -1.100722703089e-13
   118    1.568527596368e-15
   119    3.454493597669e-15
   120   -7.825287971466e-15
   121   -4.371997415412e-15
   122    5.068624309129e-14
   123   -1.492051591944e-13
   124    9.416209244995e-14
   125   -1.302253422665e-14
   126    4.442634134597e-14
   127   -8.927600670526e-02
   128   -3.475551719904e-15
   129    1.098097879167e-14
   130   -8.191177607943e-03
   131    5.219111834241e-15
   132   -1.429925510231e-14
   133   -2.871985844814e-02
   134    8.700846352458e-14
   135   -3.115954714966e-13
   136    7.835106920516e-01
   137   -9.874117097022e-14
   138    3.503325560419e-13
   139   -1.065536232522e+00
   140   -3.138098967253e-16
   141    2.546496000178e-13
   142    6.687300350278e-02
   143    1.890134610848e-14
   144   -1.770219016340e-15
   145   -3.146213710523e-14
   146    4.096861738745e-13
   147    2.357181100353e-01
   148    6.645279900484e-14
   149   -1.331150321107e-14
   150   -2.222611934333e-03
   151    4.051084710896e-17
   152    3.003994324182e-15
   153   -3.430090267778e-03
   154    1.181643758535e-13
   155    6.918455648221e-17
   156    3.166342364134e-15
   157   -9.247715524124e-16
   158   -4.745043557054e-16
   159    6.096472119681e-15
   160   -1.894430241733e-14
   161    2.501514913351e-14
   162    4.192868063619e-15
   163   -5.366121899071e-14
   164   -1.382850084442e-11
   165    1.111735183608e-15
   166   -1.224914419246e-14
   167   -1.045817078771e-12
   168   -2.041083045564e-15
   169    1.323868508311e-14
   170   -5.776872036289e-12
   171   -2.659511131079e-14
   172    3.781797562310e-13
   173    1.211662992162e-10
   174    2.806642305143e-14
   175   -3.997173010821e-13
   176   -1.442859165479e-10
   177   -2.103216638513e-15
   178    5.040988459992e-12
   179    4.126283158821e-03
   180   -6.915400611574e-16
   181   -2.232636940050e-14
   182   -7.283582319693e-15
   183    2.308829516462e-11
   184    3.846726035686e-02
   185   -6.718717928755e-15
   186   -9.885326764946e-14
   187   -5.682398995788e-13
   188    2.567855843979e-16
   189    5.320218657558e-16
   190    5.565138194025e-13
   191    8.522449681778e-04
   192   -9.319585115072e-16
   193   -1.375154740956e-15
Sym=X
Ene= 0.853222
Spin=Alpha
Occup=0
     1   -8.925980805891e-03
     2    1.884155669192e-02
     3   -8.647355959553e-02
     4    1.604895772013e-02
     5   -7.712100656062e-01
     6    2.457643294529e-01
     7    3.339315082640e-12
     8   -2.640255011020e-12
     9    7.226655802069e-16
    10   -9.179615099898e-12
    11    7.877659803587e-12
    12   -1.891479615524e-15
    13   -3.469035687462e-12
    14   -1.615948032687e-12
    15   -2.417140960976e-15
    16   -2.359314433664e-11
    17    1.854543177587e-11
    18    3.031019253562e-14
    19   -4.988936147876e-02
    20   -3.739513020016e-15
    21    2.634710226541e-17
    22   -2.059852862475e-12
    23   -9.698008917756e-13
    24   -7.042874606786e-02
    25   -3.380440610535e-15
    26   -5.517505039792e-16
    27   -4.374507951666e-12
    28   -4.602759055169e-12
    29    3.162528097262e-01
    30    1.047930068749e-14
    31    1.355581516122e-15
    32    1.789637288604e-11
    33    2.168667403098e-11
    34   -4.614199804906e-01
    35    3.504399896307e-14
    36   -5.264655701121e-15
    37   -3.511363841415e-11
    38    3.727215206136e-11
    39    2.064362602380e-16
    40    3.806505407942e-13
    41   -1.718677753934e-13
    42   -1.297591327977e-16
    43   -7.847936066987e-17
    44   -8.845583846523e-13
    45   -3.666625392983e-13
    46   -8.563927204183e-03
    47   -4.460110200520e-03
    48    5.599278841098e-02
    49   -1.728191294433e-01
    50    5.453914836460e-02
    51   -6.866609822634e-02
    52   -1.745969617539e-11
    53   -1.192870310040e-14
    54   -1.696519722125e-02
    55   -4.040424577864e-12
    56   -1.363770147407e-15
    57    2.003429079694e-02
    58    7.093096077356e-12
    59   -2.565429111082e-15
    60    5.081179231295e-01
    61    1.170127086021e-10
    62    1.018040309892e-13
    63   -6.533237501975e-01
    64   -1.342365611819e-10
    65   -1.361561319107e-13
    66   -1.176467803000e-02
    67   -8.636211654242e-16
    68    3.076406458189e-15
    69   -5.047789140018e-02
    70    3.083200841084e-12
    71   -9.504250686741e-02
    72   -1.052614640348e-14
    73    9.414323801645e-15
    74   -1.094491859224e-01
    75    8.657078365792e-12
    76   -2.636266385712e-16
    77    4.071365916840e-03
    78    7.637109467158e-14
    79   -1.747835455983e-15
    80   -4.658035787194e-16
    81   -1.519949070816e-03
    82   -3.094573846535e-13
    83   -8.563927201189e-03
    84   -4.460110198668e-03
    85    5.599278839148e-02
    86   -1.728191293858e-01
    87    5.453914830016e-02
    88    2.013331953836e-13
    89   -6.866609820927e-02
    90   -4.508655325154e-15
    91    6.404865326986e-13
    92   -1.696519721788e-02
    93   -7.767758495339e-16
    94   -2.897039517987e-14
    95    2.003429079495e-02
    96   -1.336009312057e-15
    97   -8.366284590022e-13
    98    5.081179230095e-01
    99    3.937505207181e-14
   100   -1.726697297486e-11
   101   -6.533237500726e-01
   102   -4.261912659138e-14
   103   -1.176467802415e-02
   104    1.663253049726e-15
   105    1.476230111441e-15
   106    5.047789139555e-02
   107   -7.898196489991e-12
   108   -9.504250684781e-02
   109    3.337591189767e-15
   110   -5.725166865044e-16
   111    1.094491858971e-01
   112   -3.365101895981e-11
   113    2.134058855754e-17
   114   -1.369858565432e-13
   115    4.071365917636e-03
   116    1.225731709147e-16
   117   -9.670844505846e-17
   118   -1.062664096715e-12
   119    1.519949072827e-03
   120   -8.563927202703e-03
   121   -4.460110199487e-03
   122    5.599278840134e-02
   123   -1.728191294159e-01
   124    5.453914832589e-02
   125    2.357043702282e-11
   126    6.866609822339e-02
   127   -3.987034225482e-15
   128    6.104012402052e-12
   129    1.696519722112e-02
   130   -3.862446964908e-16
   131   -1.191035376530e-11
   132   -2.003429079534e-02
   133   -1.612073216526e-15
   134   -1.517304627052e-10
   135   -5.081179231209e-01
   136    3.548911933700e-14
   137    1.672854466794e-10
   138    6.533237502012e-01
   139   -4.318548366955e-14
   140   -1.176467802410e-02
   141    1.040153913530e-15
   142   -3.893808136941e-15
   143    5.047789139817e-02
   144    6.122889558487e-12
   145   -9.504250685249e-02
   146   -4.002406097536e-16
   147   -4.878045005932e-15
   148    1.094491859024e-01
   149    2.234962623240e-11
   150   -7.898900981512e-16
   151   -3.618165544197e-13
   152   -4.071365917820e-03
   153    1.691415679084e-15
   154   -5.522471655156e-16
   155   -5.286715565364e-13
   156   -1.519949072640e-03
   157   -8.563927200035e-03
   158   -4.460110198542e-03
   159    5.599278838381e-02
   160   -1.728191293598e-01
   161    5.453914829824e-02
   162    6.866609819986e-02
   163    5.551235086867e-12
   164    1.040386586858e-15
   165    1.696519721608e-02
   166    1.879456249649e-12
   167    2.344149718854e-16
   168   -2.003429079305e-02
   169   -6.076663006663e-12
   170    4.592991233922e-16
   171   -5.081179229358e-01
   172   -2.975719518620e-11
   173   -1.202999803513e-14
   174    6.533237499748e-01
   175    4.595941172939e-11
   176    2.830961450984e-14
   177   -1.176467802744e-02
   178   -6.135617746616e-15
   179   -1.364880399410e-15
   180   -5.047789138729e-02
   181   -4.262075727805e-12
   182   -9.504250685161e-02
   183   -1.205981019791e-14
   184   -3.293345008186e-15
   185   -1.094491858735e-01
   186   -1.636008509418e-11
   187   -2.499249863400e-16
   188   -4.071365917312e-03
   189   -3.860750739703e-14
   190   -1.302406417393e-15
   191   -4.166094603930e-16
   192    1.519949073200e-03
   193   -9.977506927350e-13
[5D7F]

======= END OF MOLDEN-FORMATTED INPUT FILE =======


        *************************************************************
        *                                                           *
        *  Thank you very much for using Q-Chem.  Have a nice day.  *
        *                                                           *
        *************************************************************


