                  Welcome to Q-Chem
     A Quantum Leap Into The Future Of Chemistry


 Q-Chem 5.4 (devel), Q-Chem, Inc., Pleasanton, CA (2021)

 E. Epifanovsky,  A. T. B. Gilbert,  Xintian Feng,  Joonho Lee,  Yuezhi Mao,  
 N. Mardirossian,  P. Pokhilko,  A. White,  M. Wormit,  M. P. Coons,  
 A. L. Dempwolff,  Zhengting Gan,  D. Hait,  P. R. Horn,  L. D. Jacobson,  
 I. Kaliman,  J. Kussmann,  A. W. Lange,  Ka Un Lao,  D. S. Levine,  Jie Liu,  
 S. C. McKenzie,  A. F. Morrison,  K. Nanda,  F. Plasser,  D. R. Rehn,  
 M. L. Vidal,  Zhi-Qiang You,  Ying Zhu,  B. Alam,  B. Albrecht,  
 A. Aldossary,  E. Alguire,  J. H. Andersen,  D. Barton,  K. Begam,  A. Behn,  
 Y. A. Bernard,  E. J. Berquist,  H. Burton,  A. Carreras,  K. Carter-Fenk,  
 Romit Chakraborty,  A. D. Chien,  K. D. Closser,  V. Cofer-Shabica,  
 S. Dasgupta,  Jia Deng,  M. de Wergifosse,  M. Diedenhofen,  Hainam Do,  
 S. Ehlert,  Po-Tung Fang,  S. Fatehi,  Qingguo Feng,  T. Friedhoff,  
 J. Gayvert,  Qinghui Ge,  G. Gidofalvi,  M. Goldey,  J. Gomes,  
 C. Gonzalez-Espinoza,  S. Gulania,  A. Gunina,  M. W. D. Hanson-Heine,  
 P. H. P. Harbach,  A. W. Hauser,  M. F. Herbst,  M. Hernandez Vera,  
 M. Hodecker,  Z. C. Holden,  S. Houck,  Xunkun Huang,  Kerwin Hui,  
 B. C. Huynh,  M. Ivanov,  Hyunjun Ji,  Hanjie Jiang,  B. Kaduk,  S. Kaehler,  
 K. Khistyaev,  Jaehoon Kim,  P. Klunzinger,  Z. Koczor-Benda,  
 Joong Hoon Koh,  D. Kosenkov,  L. Koulias,  T. Kowalczyk,  C. M. Krauter,  
 K. Kue,  A. Kunitsa,  T. Kus,  A. Landau,  K. V. Lawler,  D. Lefrancois,  
 S. Lehtola,  Rain Li,  Yi-Pei Li,  Jiashu Liang,  M. Liebenthal,  
 Hung-Hsuan Lin,  You-Sheng Lin,  Fenglai Liu,  Kuan-Yu Liu,  
 M. Loipersberger,  A. Luenser,  A. Manjanath,  P. Manohar,  E. Mansoor,  
 S. F. Manzer,  Shan-Ping Mao,  A. V. Marenich,  T. Markovich,  S. Mason,  
 S. A. Maurer,  P. F. McLaughlin,  M. F. S. J. Menger,  J.-M. Mewes,  
 S. A. Mewes,  P. Morgante,  J. W. Mullinax,  K. J. Oosterbaan,  G. Paran,  
 Alexander C. Paul,  Suranjan K. Paul,  F. Pavosevic,  Zheng Pei,  S. Prager,  
 E. I. Proynov,  E. Ramos,  B. Rana,  A. E. Rask,  A. Rettig,  R. M. Richard,  
 F. Rob,  E. Rossomme,  T. Scheele,  M. Scheurer,  M. Schneider,  
 N. Sergueev,  S. M. Sharada,  W. Skomorowski,  D. W. Small,  C. J. Stein,  
 Yu-Chuan Su,  E. J. Sundstrom,  Zhen Tao,  J. Thirman,  T. Tsuchimochi,  
 N. M. Tubman,  S. P. Veccham,  O. Vydrov,  J. Wenzel,  J. Witte,  A. Yamada,  
 Kun Yao,  S. Yeganeh,  S. R. Yost,  A. Zech,  Igor Ying Zhang,  Xing Zhang,  
 Yu Zhang,  D. Zuev,  A. Aspuru-Guzik,  A. T. Bell,  N. A. Besley,  
 K. B. Bravaya,  B. R. Brooks,  D. Casanova,  Jeng-Da Chai,  S. Coriani,  
 C. J. Cramer,  A. E. DePrince, III,  R. A. DiStasio Jr.,  A. Dreuw,  
 B. D. Dunietz,  T. R. Furlani,  W. A. Goddard III,  S. Grimme,  
 S. Hammes-Schiffer,  T. Head-Gordon,  W. J. Hehre,  Chao-Ping Hsu,  
 T.-C. Jagau,  Yousung Jung,  A. Klamt,  Jing Kong,  D. S. Lambrecht,  
 WanZhen Liang,  N. J. Mayhall,  C. W. McCurdy,  J. B. Neaton,  T. Neudecker,  
 C. Ochsenfeld,  J. A. Parkhill,  R. Peverati,  V. A. Rassolov,  Yihan Shao,  
 L. V. Slipchenko,  R. P. Steele,  J. E. Subotnik,  A. J. W. Thom,  
 A. Tkatchenko,  D. G. Truhlar,  T. Van Voorhis,  T. A. Wesolowski,  
 K. B. Whaley,  H. L. Woodcock III,  P. M. Zimmerman,  S. Faraji,  
 P. M. W. Gill,  M. Head-Gordon,  J. M. Herbert,  A. I. Krylov

 Additional authors since Version 5.4.0: 
 Chandrima Chakravarty,  L. Cunha,  R. Kang,  Yongbin Kim,  S. Kotaru,  
 Shaozhi Li,  Xiangyuan Li,  F. Matz,  A. Molle,  V. Parravicini,  
 Haisheng Ren,  Hengyuan Shen,  Yingli Su,  Hung-Yi Tsai,  C. Utku,  
 Fang Wang,  Jeff Yang,  F. Zeller

 Contributors to earlier versions of Q-Chem not listed above: 
 R. D. Adamson,  B. Austin,  R. Baer,  J. Baker,  G. J. O. Beran,  
 K. Brandhorst,  S. T. Brown,  E. F. C. Byrd,  Arup K. Chakraborty,  
 G. K. L. Chan,  Chun-Min Chang,  Yunqing Chen,  C.-L. Cheng,  
 Siu Hung Chien,  D. M. Chipman,  D. L. Crittenden,  H. Dachsel,  
 R. J. Doerksen,  A. D. Dutoi,  R. G. Edgar,  J. Fosso-Tande,  
 L. Fusti-Molnar,  D. Ghosh,  A. Ghysels,  A. Golubeva-Zadorozhnaya,  
 J. Gonthier,  M. S. Gordon,  S. R. Gwaltney,  G. Hawkins,  J. E. Herr,  
 A. Heyden,  S. Hirata,  E. G. Hohenstein,  G. Kedziora,  F. J. Keil,  
 C. Kelley,  Jihan Kim,  R. A. King,  R. Z. Khaliullin,  P. P. Korambath,  
 W. Kurlancheek,  A. Laurent,  A. M. Lee,  M. S. Lee,  S. V. Levchenko,  
 Ching Yeh Lin,  D. Liotard,  E. Livshits,  R. C. Lochan,  I. Lotan,  
 L. A. Martinez-Martinez,  P. E. Maslen,  N. Nair,  D. P. O'Neill,  
 D. Neuhauser,  E. Neuscamman,  C. M. Oana,  R. Olivares-Amaya,  R. Olson,  
 T. M. Perrine,  B. Peters,  P. A. Pieniazek,  A. Prociuk,  Y. M. Rhee,  
 J. Ritchie,  M. A. Rohrdanz,  E. Rosta,  N. J. Russ,  H. F. Schaefer III,  
 M. W. Schmidt,  N. E. Schultz,  S. Sharma,  N. Shenvi,  C. D. Sherrill,  
 A. C. Simmonett,  A. Sodt,  T. Stein,  D. Stuck,  K. S. Thanthiriwatte,  
 V. Vanovschi,  L. Vogt,  Tao Wang,  A. Warshel,  M. A. Watson,  
 C. F. Williams,  Q. Wu,  X. Xu,  Jun Yang,  W. Zhang,  Yan Zhao

   Please cite Q-Chem as follows:
  "Software for the frontiers of quantum chemistry:
   An overview of developments in the Q-Chem 5 package"
   J. Chem. Phys. 155, 084801 (2021)
   https://doi.org/10.1063/5.0055522 (open access)

 Q-Chem 5.4.2 for Intel X86 EM64T Linux

 Parts of Q-Chem use Armadillo 9.900.5 (Nocturnal Misbehaviour).
 http://arma.sourceforge.net/

 Q-Chem begins on Fri Dec  2 18:28:07 2022  

 Host: atlas-166
0

     Scratch files written to ./qchem7948//
 Processing $rem in /scratch/abel/SOFTWARE/qchem/config/preferences:
 Processing $rem in /dipc/acebg/.qchemrc:
The previous job contains 0 fragments, simply inherited here

 Checking the input file for inconsistencies... 	...done.

--------------------------------------------------------------
User input:
--------------------------------------------------------------
$comment
 RAS-SF CALCULATION
$end

$molecule
 READ cucl4_2-_d10.molecule
$end

$rem
!**CALCULATION TYPE***     
JOBTYPE            sp    
EXCHANGE           HF
CORRELATION        RASCI    !RASCI=Casanova; RASCI2=Zimmerman
BASIS              def2-TZVP

!***SCF REFERENCE***
SKIP_SCFMAN        FALSE
UNRESTRICTED       FALSE
!SCF_GUESS          core
!SCF_GUESS_MIX      FALSE
!SCF_GUESS_ALWAYS   FALSE
MAX_SCF_CYCLES     500
SCF_CONVERGENCE    8
!SCF_ALGORITHM      DIIS !DIIS,DM,DIIS_DM,GDM,DIIS_GDM,GD

SYMMETRY           TRUE !use of symmetry for calculating integrals
SYM_IGNORE         FALSE !turn off using symmetry
SYM_TOL            5 !tolerance for determining point group

!THRESH             14
SCF_FINAL_PRINT     1 !0,1,2,3

!****RAS-SF****
RAS_ROOTS          10       !number of RAS-CI roots to be computed
SET_ITER           100     !number of iterations in RASCI
RAS_ELEC           17       !number of electrons in RAS2
!RAS_ELEC_ALPHA            !spin-α electrons in RAS2 
!RAS_ELEC_BETA             !spin-β electrons in RAS2

RAS_ACT            9       !number of orbitals in RAS2 
RAS_ACT_ORB   [34,35,36,37, 38, 43, 45, 46, 50] !user-selected RAS2 orbitals
RAS_OCC            41       !number of orbitals in RAS1
N_FROZEN_CORE      FC     !Number of frozen core orbitals
N_FROZEN_VIRTUAL   0      !Number of frozen virtual orbitals
RAS_NATORB         TRUE    !computation of the natural orbital occupancies
!RAS_NATORB_STATE  0      !Saves NO of i RAS computed state in .fchk ﬁle

RAS_DO_HOLE        TRUE   !presence of hole excitations in RAS-CI wave function
RAS_DO_PART        TRUE   !presence of particle excitations
RAS_AMPL_PRINT     10     !threshold (×10 2 ) for the CI amplitudes

RAS_GUESS_CS       0      !number of closed shell guess conﬁgurations
RAS_SPIN_MULT      0      !spin multiplicity: 0=any, 2n+1=defined 
RAS_SRDFT          FALSE  !short-range density functional RAS-CI
RAS_NFRAG          0     !fragments of excitation analysis in RASCI

RAS_PRINT          2      !level of information
RAS_NATORB         TRUE   !computation of the natural orbital occupancies
!RAS_NATORB_STATE  0      !Saves NO of i RAS computed state in .fchk ﬁle
RAS_FOD            TRUE

!****RAS-SOC****
CALC_SOC           TRUE   !calculate SOC for EOM-CC, RAS-CI, ADC, TDDFT/TDA and TDDFT
!RAS_SOC_2E        TRUE   !two-electron mean-ﬁeld contribution, default=true
RAS_SOC_SYM_DENS   TRUE   !averaging of α and β densities

!****MEMORY****
MEM_TOTAL          10000 !Default 2000 MB
MEM_STATIC         2000  !Default 64 MB

!**Molecular Properties and Analysis **                                                                                          
GUI                2
STATE_ANALYSIS     TRUE
MOLDEN_FORMAT      TRUE
PRINT_ORBITALS     20
$end                                           

--------------------------------------------------------------
 ----------------------------------------------------------------
             Standard Nuclear Orientation (Angstroms)
    I     Atom           X                Y                Z
 ----------------------------------------------------------------
    1      Cu     -0.0000000000     0.0000000000    -0.0000000000
    2      Cl      2.3112385002    -0.0000000000    -0.0000000000
    3      Cl      0.0000000000     2.3112385002    -0.0000000000
    4      Cl     -0.0000000000    -2.3112385002     0.0000000000
    5      Cl     -2.3112385002     0.0000000000     0.0000000000
 ----------------------------------------------------------------
 Molecular Point Group                 D2h   NOp =  8
 Largest Abelian Subgroup              D2h   NOp =  8
 Nuclear Repulsion Energy =         704.82872953 hartrees
 There are       50 alpha and       50 beta electrons
 Requested basis set is def2-TZVP
 There are 67 shells and 193 basis functions

 Total QAlloc Memory Limit  10000 MB
 Mega-Array Size      1956 MB
 MEM_STATIC part      2000 MB


                       Distance Matrix (Angstroms)
             Cu(  1)   Cl(  2)   Cl(  3)   Cl(  4)
   Cl(  2)  2.311239
   Cl(  3)  2.311239  3.268585
   Cl(  4)  2.311239  3.268585  4.622477
   Cl(  5)  2.311239  4.622477  3.268585  3.268585
 
 A cutoff of  1.0D-11 yielded   1818 shell pairs
 There are     16326 function pairs (     21523 Cartesian)
 Smallest overlap matrix eigenvalue = 9.49E-03

 Scale SEOQF with 1.000000e-01/1.000000e-01/1.000000e-01

 Standard Electronic Orientation quadrupole field applied
 Nucleus-field energy     =     0.0000000195 hartrees
 Guess from superposition of atomic densities
 Warning:  Energy on first SCF cycle will be non-variational
 SAD guess density has 97.000000 electrons

 -----------------------------------------------------------------------
  General SCF calculation program by
  Eric Jon Sundstrom, Paul Horn, Yuezhi Mao, Dmitri Zuev, Alec White,
  David Stuck, Shaama M.S., Shane Yost, Joonho Lee, David Small,
  Daniel Levine, Susi Lehtola, Hugh Burton, Evgeny Epifanovsky,
  Bang C. Huynh
 -----------------------------------------------------------------------
 Hartree-Fock
 A restricted SCF calculation will be
 performed using DIIS
 SCF converges when DIIS error is below 1.0e-08
 ---------------------------------------
  Cycle       Energy         DIIS error
 ---------------------------------------
    1   -3476.6934827134      2.23e-02  
    2   -3476.7267803034      4.35e-03  
    3   -3476.8410645372      1.91e-03  
    4   -3476.8520042025      2.79e-04  
    5   -3476.8523511947      2.54e-04  
    6   -3476.8524852109      7.30e-05  
    7   -3476.8525274137      2.19e-05  
    8   -3476.8525342382      1.08e-05  
    9   -3476.8525356556      3.27e-06  
   10   -3476.8525357940      3.26e-07  
   11   -3476.8525357961      7.02e-08  
   12   -3476.8525357957      1.51e-08  
   13   -3476.8525357974      1.55e-09  Convergence criterion met
 ---------------------------------------
 DFT Correlation    Energy =   0.00000000000000
 DFT Exchange       Energy =   0.00000000000000
 HF Exchange        Energy = -176.91470971037668
 Kinetic            Energy =   0.00000000000000
 Nuclear Attraction Energy =   0.00000000000000
 One-Electron       Energy = -6295.50476503939444
 Total Coulomb      Energy = 2290.73820940254882
 Final Alpha MO Eigenvalues
            1           2           3           4           5           6
    1-328.2526880-104.2563787-104.2563747-104.2563726-104.2563726 -40.2821337
            7           8           9          10          11          12
    1 -35.0854217 -35.0791333 -35.0791333  -9.9853569  -9.9853513  -9.9853513
           13          14          15          16          17          18
    1  -9.9853475  -7.4519554  -7.4519543  -7.4519514  -7.4519514  -7.4516502
           19          20          21          22          23          24
    1  -7.4516490  -7.4516490  -7.4516461  -7.4516219  -7.4516205  -7.4516205
           25          26          27          28          29          30
    1  -7.4516202  -4.4792870  -2.7943978  -2.7932823  -2.7932823  -0.5208555
           31          32          33          34          35          36
    1  -0.5061055  -0.5061055  -0.4970716  -0.0205584  -0.0027431   0.0050176
           37          38          39          40          41          42
    1   0.0210534   0.0210534   0.0466990   0.0466990   0.0621517   0.0690382
           43          44          45          46          47          48
    1   0.0911038   0.0926183   0.0986302   0.0986302   0.1016668   0.1016668
           49          50          51          52          53          54
    1   0.1235028   0.1715809   0.5481729   0.7294426   0.7685366   0.7917636
           55          56          57          58          59          60
    1   0.7963456   0.7970110   0.7970110   0.8669463   0.8669463   0.8873983
           61          62          63          64          65          66
    1   0.9783104   0.9811655   0.9811655   1.0047210   1.0155879   1.0182896
           67          68          69          70          71          72
    1   1.0182896   1.0326180   1.0326180   1.0397569   1.0413603   1.0589295
           73          74          75          76          77          78
    1   1.1502152   1.1728335   1.1728335   1.1869368   1.1869368   1.2013374
           79          80          81          82          83          84
    1   1.2018508   1.2018508   1.2047875   1.2122699   1.2301253   1.2838251
           85          86          87          88          89          90
    1   1.3277483   1.3277483   1.3404934   1.3639313   1.3907937   1.4038245
           91          92          93          94          95          96
    1   1.4038245   1.4079482   1.6542816   1.6993003   1.6993003   1.7632838
           97          98          99         100         101         102
    1   1.7632838   1.7762061   1.8103443   1.9105157   2.2083616   2.6019551
          103         104         105         106         107         108
    1   2.6019551   2.6056086   2.6322839   2.6647519   2.6647519   2.6690895
          109         110         111         112         113         114
    1   2.6754364   2.6841251   2.7241607   2.7326885   2.7326885   2.7752306
          115         116         117         118         119         120
    1   2.7764450   2.7764450   2.7926906   2.7945816   2.8014101   2.8014101
          121         122         123         124         125         126
    1   2.8196102   2.8832699   2.8832699   2.9445441   2.9525695   2.9548263
          127         128         129         130         131         132
    1   2.9548263   2.9587492   2.9600006   2.9600006   2.9603876   2.9607705
          133         134         135         136         137         138
    1   2.9619675   2.9628112   2.9658159   2.9658159   2.9721825   2.9721825
          139         140         141         142         143         144
    1   2.9766428   2.9809479   2.9831379   2.9833770   3.0162647   3.0162647
          145         146         147         148         149         150
    1   3.0578387   3.0998549   3.0998549   3.1229140   3.1298064   3.1322353
          151         152         153         154         155         156
    1   3.1440176   3.1440176   3.1476350   3.1476350   3.1489321   3.1749870
          157         158         159         160         161         162
    1   3.1871186   3.2628844   3.2628844   3.2706486   3.4383735   3.5352329
          163         164         165         166         167         168
    1   3.5352329   3.8468307   4.5942863   4.8505776   4.8505776   5.0099397
          169         170         171         172         173         174
    1   5.2302019   5.5198004   6.8747169   6.8771837   6.8787843   6.8787843
          175         176         177         178         179         180
    1   6.8792960   6.9224463   6.9224463  12.0084787  12.0253835  12.0253835
          181         182         183         184         185         186
    1  12.0484890  12.0684403  12.0684403  12.0708402  12.0860505  12.1165240
          187         188         189         190         191         192
    1  12.1165240  12.2919054  12.2922254  25.7615927  25.7615927  26.1169801
          193
    1  26.6477221
 SCF time:   CPU 36.78s  wall 37.00s 
 SCF   energy in the final basis set =    -3476.8525357974
 Total energy in the final basis set =    -3476.8525357974
  
     ##========================================##
     ||                                        ||
     ||              R A S M A N 2             ||
     ||________________________________________||
     ||                                        ||
     ||  Author:                               ||
     ||                                        ||
     ||        David Casanova (2010)           ||
     ||                                        ||
     ##========================================##
  
  ***************************************************
  *  RAS-CI Dimensions:                             *
  *                                                 *
  *  Active Elec.:  17 ( 9, 8)   Active Orb.:   9   *
  *  Doubly Occ. :  41           Doubly Vir.: 143   *
  *  Frozen Occ. :  29           Frozen Vir.:   0   *
  *                                                 *
  *  Total CI configurations:     16752             * 
  *    Active configurations:         9             * 
  *      Hole configurations:        12             * 
  *  Particle configurations:     16731             * 
  *                                                 *
  *   Requested states:       10                    *
  *  Spin multiplicity: Any multiplicity            *
  *                                                 *
  ***************************************************
-----------------------------------------
    Memory requirements of RASCI

 Each CI-vector requires      0.13 MiB 
 Max. subspace vectors           1000      

 Reduced Lists                0.00 MiB 
 Excitation Lists             0.00 MiB 
 Excitation Lists Sign        0.00 MiB 
 CI-space (Max)             136.72 MiB 
 Integrals                   48.25 MiB 
 Memory required (Max)      136.73 MiB 
 Memory available          1907.35 MiB 

    Disk requirements of RASCI

 Fock matrix                  0.57 MiB 
 2-electron integrals        54.85 MiB 
 CI-space                   255.62 MiB 
 Disk required              311.03 MiB 
-----------------------------------------
  
RAS1 HF-like energy:          -3420.8696687128
 Computing integrals
 Computing J and K matrices
 Computing addressing
 Making amplitude guesses
 
Direct CI diagonalization
 ---------------------------------------------------
 Iter    Rts Conv    Rts Left    Ttl Dev     Max Dev
 ---------------------------------------------------
   1         0          10      0.020871    0.004228
   2         0          10      0.012670    0.002067
   3         0          10      0.009524    0.001560
   4         0          10      0.011204    0.002020
   5         0          10      0.009791    0.002098
   6         0          10      0.007463    0.001769
   7         0          10      0.008461    0.002185
   8         0          10      0.008652    0.002324
   9         0          10      0.004811    0.001296
  10         0          10      0.003793    0.000930
  11         0          10      0.005478    0.001463
  12         0          10      0.002121    0.000535
  13         0          10      0.001442    0.000349
  14         0          10      0.001608    0.000467
  15         0          10      0.001309    0.000362
  16         1           9      0.000685    0.000200
  17         1           9      0.000827    0.000257
  18         1           9      0.000534    0.000149
  19         1           9      0.000440    0.000136
  20         0          10      0.000328    0.000096
  21         1           9      0.000354    0.000121
  22         2           8      0.000173    0.000052
  23         3           7      0.000156    0.000051
  24         3           7      0.000118    0.000040
  25         4           6      0.000097    0.000034
  26         5           5      0.000056    0.000017
  27         5           5      0.000065    0.000028
  28         5           5      0.000043    0.000012
  29         5           5      0.000032    0.000011
  30         6           4      0.000023    0.000007
  31         6           4      0.000023    0.000007
  32         6           4      0.000015    0.000003
  33         8           2      0.000014    0.000004
  34         8           2      0.000012    0.000003
  35         8           2      0.000012    0.000002
  36        10           0      0.000009    0.000001    Roots Converged
 ---------------------------------------------------
   
**************************************************
 RAS-CI total energy for state   1:  -3477.172386042451
  Excitation energy (eV) =  0.000000000000
  Warning: not all configurations have same symmetry
  State symmetry: *Ag    (D2h      )
  <S^2>      :  0.7500
  Dipole Moment:    0.0000 X    -0.0000 Y    -0.0000 Z
 NATURAL OCCUPATION NUMBERS (higher than 1.0E-05)
            1           2           3           4           5           6
    1   2.0000000   2.0000000   2.0000000   2.0000000   2.0000000   2.0000000
            7           8           9          10          11          12
    1   2.0000000   2.0000000   2.0000000   2.0000000   2.0000000   2.0000000
           13          14          15          16          17          18
    1   2.0000000   2.0000000   2.0000000   2.0000000   2.0000000   2.0000000
           19          20          21          22          23          24
    1   2.0000000   2.0000000   2.0000000   2.0000000   2.0000000   2.0000000
           25          26          27          28          29          30
    1   2.0000000   2.0000000   2.0000000   2.0000000   2.0000000   2.0000000
           31          32          33          34          35          36
    1   2.0000000   2.0000000   2.0000000   2.0000000   2.0000000   2.0000000
           37          38          39          40          41          42
    1   2.0000000   2.0000000   2.0000000   2.0000000   1.9999942   1.9997616
           43          44          45          46          47          48
    1   1.9996316   1.9996316   1.9968725   1.9968725   1.9965142   1.9955989
           49          50          51          52          53          54
    1   1.9906787   1.0070778   0.0038250   0.0034535   0.0029949   0.0029949
           55          56          57          58          59          60
    1   0.0026675   0.0001812   0.0001737   0.0001635   0.0001635   0.0001516
           61          62          63          64          65          66
    1   0.0001516   0.0001287   0.0000790   0.0000763   0.0000554   0.0000263
           67          68          69          70
    1   0.0000148   0.0000126   0.0000105   0.0000105

  Amplitudes : 
  
 | HOLE  | ALPHA     | BETA      | PART  |    AMPLITUDE 
--------------------------------------------------
 |       | 111111111 | 111111110 |       |     8.3620597981980E-01
 |       | 111111111 | 011111111 |       |    -4.5764534605426E-01
--------------------------------------------------
*** Contributions RASCI wfn    Active:  90.87
                                 Hole:   0.03
                                 Part:   9.11

      Mulliken population analysis 
 ---------------------------------------------------
   Atom    Charge (a.u.)   Spin (a.u.)  
 ---------------------------------------------------
   1 Cu    1.153030        0.799320 
   2 Cl   -0.788257        0.050170 
   3 Cl   -0.788257        0.050170 
   4 Cl   -0.788257        0.050170 
   5 Cl   -0.788257        0.050170 
 ---------------------------------------------------
   Sum:   -2.000000        1.000000 
 ---------------------------------------------------
 
  
 NATURAL OCCUPATION NUMBERS (higher than 1.0E-05)
            1           2           3           4           5           6
    1   2.0000000   2.0000000   2.0000000   2.0000000   2.0000000   2.0000000
            7           8           9          10          11          12
    1   2.0000000   2.0000000   2.0000000   2.0000000   2.0000000   2.0000000
           13          14          15          16          17          18
    1   2.0000000   2.0000000   2.0000000   2.0000000   2.0000000   2.0000000
           19          20          21          22          23          24
    1   2.0000000   2.0000000   2.0000000   2.0000000   2.0000000   2.0000000
           25          26          27          28          29          30
    1   2.0000000   2.0000000   2.0000000   2.0000000   2.0000000   2.0000000
           31          32          33          34          35          36
    1   2.0000000   2.0000000   2.0000000   2.0000000   2.0000000   2.0000000
           37          38          39          40          41          42
    1   2.0000000   2.0000000   2.0000000   2.0000000   1.9999942   1.9997616
           43          44          45          46          47          48
    1   1.9996316   1.9996316   1.9968725   1.9968725   1.9965142   1.9955989
           49          50          51          52          53          54
    1   1.9906787   1.0070778   0.0038250   0.0034535   0.0029949   0.0029949
           55          56          57          58          59          60
    1   0.0026675   0.0001812   0.0001737   0.0001635   0.0001635   0.0001516
           61          62          63          64          65          66
    1   0.0001516   0.0001287   0.0000790   0.0000763   0.0000554   0.0000263
           67          68          69          70
    1   0.0000148   0.0000126   0.0000105   0.0000105
  
*** Unpaired Electrons
 Yamaguchi Nd:         1.08
 Head-Gordon Nu:       1.03
 Head-Gordon Nu_nl:    1.00
  
**************************************************
 RAS-CI total energy for state   2:  -3477.131084423580
  Excitation energy (eV) =  1.123874230417
  Warning: not all configurations have same symmetry
  State symmetry: *Ag    (D2h      )
  <S^2>      :  0.7500
  Dipole Moment:    0.0000 X    -0.0000 Y    -0.0000 Z
  Trans. Moment:    0.0000 X    -0.0000 Y    -0.0000 Z
  Strength   :  0.000000
  Natural transition orbitals ( 1 -> 2 ):
   e-/hole pair  1 alpha:  ampl =  0.004459 (  0.0%)   [9 : 10]
   e-/hole pair  2 alpha:  ampl =  0.003837 (  0.0%)   [8 : 11]
   e-/hole pair  1 beta :  ampl =  0.992282 ( 98.5%)   [9 : 10]
   e-/hole pair  2 beta :  ampl =  0.027794 (  0.1%)   [8 : 11]
   Sum of square amplitudes: 0.99

 NATURAL OCCUPATION NUMBERS (higher than 1.0E-05)
            1           2           3           4           5           6
    1   2.0000000   2.0000000   2.0000000   2.0000000   2.0000000   2.0000000
            7           8           9          10          11          12
    1   2.0000000   2.0000000   2.0000000   2.0000000   2.0000000   2.0000000
           13          14          15          16          17          18
    1   2.0000000   2.0000000   2.0000000   2.0000000   2.0000000   2.0000000
           19          20          21          22          23          24
    1   2.0000000   2.0000000   2.0000000   2.0000000   2.0000000   2.0000000
           25          26          27          28          29          30
    1   2.0000000   2.0000000   2.0000000   2.0000000   2.0000000   2.0000000
           31          32          33          34          35          36
    1   2.0000000   2.0000000   2.0000000   2.0000000   2.0000000   2.0000000
           37          38          39          40          41          42
    1   2.0000000   2.0000000   2.0000000   2.0000000   2.0000000   1.9998339
           43          44          45          46          47          48
    1   1.9997895   1.9997895   1.9977439   1.9977439   1.9976410   1.9975828
           49          50          51          52          53          54
    1   1.9966426   1.0009604   0.0031589   0.0022828   0.0021245   0.0021245
           55          56          57          58          59          60
    1   0.0018092   0.0001563   0.0001563   0.0001376   0.0001111   0.0000316
           61          62          63          64          65          66
    1   0.0000267   0.0000267   0.0000258   0.0000183   0.0000165   0.0000159
           67          68          69
    1   0.0000126   0.0000106   0.0000106

  Amplitudes : 
  
 | HOLE  | ALPHA     | BETA      | PART  |    AMPLITUDE 
--------------------------------------------------
 |       | 111111111 | 111110111 |       |     7.9115795949378E-01
 |       | 111111111 | 110111111 |       |    -5.2108624670462E-01
--------------------------------------------------
*** Contributions RASCI wfn    Active:  89.75
                                 Hole:   0.00
                                 Part:  10.25

      Mulliken population analysis 
 ---------------------------------------------------
   Atom    Charge (a.u.)   Spin (a.u.)  
 ---------------------------------------------------
   1 Cu    1.270625        0.965317 
   2 Cl   -0.817656        0.008671 
   3 Cl   -0.817656        0.008671 
   4 Cl   -0.817656        0.008671 
   5 Cl   -0.817656        0.008671 
 ---------------------------------------------------
   Sum:   -2.000000        1.000000 
 ---------------------------------------------------
 
  
 NATURAL OCCUPATION NUMBERS (higher than 1.0E-05)
            1           2           3           4           5           6
    1   2.0000000   2.0000000   2.0000000   2.0000000   2.0000000   2.0000000
            7           8           9          10          11          12
    1   2.0000000   2.0000000   2.0000000   2.0000000   2.0000000   2.0000000
           13          14          15          16          17          18
    1   2.0000000   2.0000000   2.0000000   2.0000000   2.0000000   2.0000000
           19          20          21          22          23          24
    1   2.0000000   2.0000000   2.0000000   2.0000000   2.0000000   2.0000000
           25          26          27          28          29          30
    1   2.0000000   2.0000000   2.0000000   2.0000000   2.0000000   2.0000000
           31          32          33          34          35          36
    1   2.0000000   2.0000000   2.0000000   2.0000000   2.0000000   2.0000000
           37          38          39          40          41          42
    1   2.0000000   2.0000000   2.0000000   2.0000000   2.0000000   1.9998339
           43          44          45          46          47          48
    1   1.9997895   1.9997895   1.9977439   1.9977439   1.9976410   1.9975828
           49          50          51          52          53          54
    1   1.9966426   1.0009604   0.0031589   0.0022828   0.0021245   0.0021245
           55          56          57          58          59          60
    1   0.0018092   0.0001563   0.0001563   0.0001376   0.0001111   0.0000316
           61          62          63          64          65          66
    1   0.0000267   0.0000267   0.0000258   0.0000183   0.0000165   0.0000159
           67          68          69
    1   0.0000126   0.0000106   0.0000106
  
*** Unpaired Electrons
 Yamaguchi Nd:         1.05
 Head-Gordon Nu:       1.02
 Head-Gordon Nu_nl:    1.00
  
**************************************************
 RAS-CI total energy for state   3:  -3477.120399538782
  Excitation energy (eV) =  1.414624738688
  Warning: not all configurations have same symmetry
  State symmetry: *B2u   (D2h      )
  <S^2>      :  0.7500
  Dipole Moment:    0.0000 X    -0.0000 Y    -0.0000 Z
  Trans. Moment:    0.0000 X    -0.0000 Y    -0.0000 Z
  Strength   :  0.000000
  Natural transition orbitals ( 1 -> 3 ):
   e-/hole pair  1 alpha:  ampl =  0.008408 (  0.0%)   [9 : 10]
   e-/hole pair  2 alpha:  ampl =  0.007815 (  0.0%)   [8 : 11]
   e-/hole pair  1 beta :  ampl =  0.991661 ( 98.3%)   [9 : 10]
   e-/hole pair  2 beta :  ampl =  0.026236 (  0.1%)   [8 : 11]
   Sum of square amplitudes: 0.98

 NATURAL OCCUPATION NUMBERS (higher than 1.0E-05)
            1           2           3           4           5           6
    1   2.0000000   2.0000000   2.0000000   2.0000000   2.0000000   2.0000000
            7           8           9          10          11          12
    1   2.0000000   2.0000000   2.0000000   2.0000000   2.0000000   2.0000000
           13          14          15          16          17          18
    1   2.0000000   2.0000000   2.0000000   2.0000000   2.0000000   2.0000000
           19          20          21          22          23          24
    1   2.0000000   2.0000000   2.0000000   2.0000000   2.0000000   2.0000000
           25          26          27          28          29          30
    1   2.0000000   2.0000000   2.0000000   2.0000000   2.0000000   2.0000000
           31          32          33          34          35          36
    1   2.0000000   2.0000000   2.0000000   2.0000000   2.0000000   2.0000000
           37          38          39          40          41          42
    1   2.0000000   2.0000000   2.0000000   2.0000000   2.0000000   1.9998332
           43          44          45          46          47          48
    1   1.9998198   1.9997502   1.9977141   1.9975599   1.9974702   1.9969651
           49          50          51          52          53          54
    1   1.9961925   1.0014976   0.0038157   0.0022740   0.0021630   0.0021338
           55          56          57          58          59          60
    1   0.0018992   0.0001571   0.0001530   0.0001495   0.0001158   0.0001014
           61          62          63          64          65
    1   0.0000908   0.0000524   0.0000379   0.0000137   0.0000111

  Amplitudes : 
  
 | HOLE  | ALPHA     | BETA      | PART  |    AMPLITUDE 
--------------------------------------------------
 |       | 111111111 | 111111101 |       |     6.2141870234020E-01
 |       | 111111111 | 111101111 |       |     7.1360370081310E-01
--------------------------------------------------
*** Contributions RASCI wfn    Active:  89.55
                                 Hole:   0.00
                                 Part:  10.45

      Mulliken population analysis 
 ---------------------------------------------------
   Atom    Charge (a.u.)   Spin (a.u.)  
 ---------------------------------------------------
   1 Cu    1.266183        0.966400 
   2 Cl   -0.826085       -0.001166 
   3 Cl   -0.807007        0.017966 
   4 Cl   -0.807007        0.017966 
   5 Cl   -0.826085       -0.001166 
 ---------------------------------------------------
   Sum:   -2.000000        1.000000 
 ---------------------------------------------------
 
  
 NATURAL OCCUPATION NUMBERS (higher than 1.0E-05)
            1           2           3           4           5           6
    1   2.0000000   2.0000000   2.0000000   2.0000000   2.0000000   2.0000000
            7           8           9          10          11          12
    1   2.0000000   2.0000000   2.0000000   2.0000000   2.0000000   2.0000000
           13          14          15          16          17          18
    1   2.0000000   2.0000000   2.0000000   2.0000000   2.0000000   2.0000000
           19          20          21          22          23          24
    1   2.0000000   2.0000000   2.0000000   2.0000000   2.0000000   2.0000000
           25          26          27          28          29          30
    1   2.0000000   2.0000000   2.0000000   2.0000000   2.0000000   2.0000000
           31          32          33          34          35          36
    1   2.0000000   2.0000000   2.0000000   2.0000000   2.0000000   2.0000000
           37          38          39          40          41          42
    1   2.0000000   2.0000000   2.0000000   2.0000000   2.0000000   1.9998332
           43          44          45          46          47          48
    1   1.9998198   1.9997502   1.9977141   1.9975599   1.9974702   1.9969651
           49          50          51          52          53          54
    1   1.9961925   1.0014976   0.0038157   0.0022740   0.0021630   0.0021338
           55          56          57          58          59          60
    1   0.0018992   0.0001571   0.0001530   0.0001495   0.0001158   0.0001014
           61          62          63          64          65
    1   0.0000908   0.0000524   0.0000379   0.0000137   0.0000111
  
*** Unpaired Electrons
 Yamaguchi Nd:         1.06
 Head-Gordon Nu:       1.03
 Head-Gordon Nu_nl:    1.00
  
**************************************************
 RAS-CI total energy for state   4:  -3477.120399533044
  Excitation energy (eV) =  1.414624894827
  Warning: not all configurations have same symmetry
  State symmetry: *B3u   (D2h      )
  <S^2>      :  0.7500
  Dipole Moment:    0.0000 X    -0.0000 Y    -0.0000 Z
  Trans. Moment:    0.0000 X    -0.0000 Y     0.0000 Z
  Strength   :  0.000000
  Natural transition orbitals ( 1 -> 4 ):
   e-/hole pair  1 alpha:  ampl =  0.008408 (  0.0%)   [9 : 10]
   e-/hole pair  2 alpha:  ampl =  0.007814 (  0.0%)   [8 : 11]
   e-/hole pair  1 beta :  ampl =  0.991660 ( 98.3%)   [9 : 10]
   e-/hole pair  2 beta :  ampl =  0.026236 (  0.1%)   [8 : 11]
   Sum of square amplitudes: 0.98

 NATURAL OCCUPATION NUMBERS (higher than 1.0E-05)
            1           2           3           4           5           6
    1   2.0000000   2.0000000   2.0000000   2.0000000   2.0000000   2.0000000
            7           8           9          10          11          12
    1   2.0000000   2.0000000   2.0000000   2.0000000   2.0000000   2.0000000
           13          14          15          16          17          18
    1   2.0000000   2.0000000   2.0000000   2.0000000   2.0000000   2.0000000
           19          20          21          22          23          24
    1   2.0000000   2.0000000   2.0000000   2.0000000   2.0000000   2.0000000
           25          26          27          28          29          30
    1   2.0000000   2.0000000   2.0000000   2.0000000   2.0000000   2.0000000
           31          32          33          34          35          36
    1   2.0000000   2.0000000   2.0000000   2.0000000   2.0000000   2.0000000
           37          38          39          40          41          42
    1   2.0000000   2.0000000   2.0000000   2.0000000   2.0000000   1.9998331
           43          44          45          46          47          48
    1   1.9998198   1.9997500   1.9977142   1.9975601   1.9974704   1.9969645
           49          50          51          52          53          54
    1   1.9961918   1.0014978   0.0038163   0.0022740   0.0021630   0.0021337
           55          56          57          58          59          60
    1   0.0018994   0.0001570   0.0001530   0.0001495   0.0001157   0.0001014
           61          62          63          64          65
    1   0.0000908   0.0000524   0.0000378   0.0000138   0.0000112

  Amplitudes : 
  
 | HOLE  | ALPHA     | BETA      | PART  |    AMPLITUDE 
--------------------------------------------------
 |       | 111111111 | 111111011 |       |     6.2141877411872E-01
 |       | 111111111 | 111011111 |       |     7.1360234244286E-01
--------------------------------------------------
*** Contributions RASCI wfn    Active:  89.54
                                 Hole:   0.00
                                 Part:  10.46

      Mulliken population analysis 
 ---------------------------------------------------
   Atom    Charge (a.u.)   Spin (a.u.)  
 ---------------------------------------------------
   1 Cu    1.266200        0.966398 
   2 Cl   -0.807019        0.017967 
   3 Cl   -0.826082       -0.001166 
   4 Cl   -0.826082       -0.001166 
   5 Cl   -0.807019        0.017967 
 ---------------------------------------------------
   Sum:   -2.000000        1.000000 
 ---------------------------------------------------
 
  
 NATURAL OCCUPATION NUMBERS (higher than 1.0E-05)
            1           2           3           4           5           6
    1   2.0000000   2.0000000   2.0000000   2.0000000   2.0000000   2.0000000
            7           8           9          10          11          12
    1   2.0000000   2.0000000   2.0000000   2.0000000   2.0000000   2.0000000
           13          14          15          16          17          18
    1   2.0000000   2.0000000   2.0000000   2.0000000   2.0000000   2.0000000
           19          20          21          22          23          24
    1   2.0000000   2.0000000   2.0000000   2.0000000   2.0000000   2.0000000
           25          26          27          28          29          30
    1   2.0000000   2.0000000   2.0000000   2.0000000   2.0000000   2.0000000
           31          32          33          34          35          36
    1   2.0000000   2.0000000   2.0000000   2.0000000   2.0000000   2.0000000
           37          38          39          40          41          42
    1   2.0000000   2.0000000   2.0000000   2.0000000   2.0000000   1.9998331
           43          44          45          46          47          48
    1   1.9998198   1.9997500   1.9977142   1.9975601   1.9974704   1.9969645
           49          50          51          52          53          54
    1   1.9961918   1.0014978   0.0038163   0.0022740   0.0021630   0.0021337
           55          56          57          58          59          60
    1   0.0018994   0.0001570   0.0001530   0.0001495   0.0001157   0.0001014
           61          62          63          64          65
    1   0.0000908   0.0000524   0.0000378   0.0000138   0.0000112
  
*** Unpaired Electrons
 Yamaguchi Nd:         1.06
 Head-Gordon Nu:       1.03
 Head-Gordon Nu_nl:    1.00
  
**************************************************
 RAS-CI total energy for state   5:  -3476.983210604343
  Excitation energy (eV) =  5.147725579025
  State symmetry: B2u   (D2h      )
  <S^2>      :  0.7500
  Dipole Moment:   -0.0000 X     0.0000 Y     0.0000 Z
  Trans. Moment:   -0.0000 X     0.0000 Y     0.0000 Z
  Strength   :  0.000000
  Natural transition orbitals ( 1 -> 5 ):
   e-/hole pair  1 alpha:  ampl =  0.007038 (  0.0%)   [9 : 10]
   e-/hole pair  2 alpha:  ampl =  0.003272 (  0.0%)   [8 : 11]
   e-/hole pair  1 beta :  ampl =  0.948630 ( 90.0%)   [9 : 10]
   e-/hole pair  2 beta :  ampl =  0.038126 (  0.1%)   [8 : 11]
   Sum of square amplitudes: 0.90

 NATURAL OCCUPATION NUMBERS (higher than 1.0E-05)
            1           2           3           4           5           6
    1   2.0000000   2.0000000   2.0000000   2.0000000   2.0000000   2.0000000
            7           8           9          10          11          12
    1   2.0000000   2.0000000   2.0000000   2.0000000   2.0000000   2.0000000
           13          14          15          16          17          18
    1   2.0000000   2.0000000   2.0000000   2.0000000   2.0000000   2.0000000
           19          20          21          22          23          24
    1   2.0000000   2.0000000   2.0000000   2.0000000   2.0000000   2.0000000
           25          26          27          28          29          30
    1   2.0000000   2.0000000   2.0000000   2.0000000   2.0000000   2.0000000
           31          32          33          34          35          36
    1   2.0000000   2.0000000   2.0000000   2.0000000   2.0000000   2.0000000
           37          38          39          40          41          42
    1   2.0000000   2.0000000   2.0000000   2.0000000   1.9999688   1.9999688
           43          44          45          46          47          48
    1   1.9999272   1.9997663   1.9994085   1.9985377   1.9985377   1.9939187
           49          50          51          52          53          54
    1   1.9900732   1.0099466   0.0059448   0.0013332   0.0013332   0.0004558
           55          56          57          58          59          60
    1   0.0002939   0.0001602   0.0000508   0.0000444   0.0000335   0.0000335
           61          62          63          64          65          66
    1   0.0000277   0.0000277   0.0000266   0.0000217   0.0000206   0.0000202
           67          68          69          70          71          72
    1   0.0000178   0.0000178   0.0000161   0.0000149   0.0000135   0.0000116
           73
    1   0.0000116

  Amplitudes : 
  
 | HOLE  | ALPHA     | BETA      | PART  |    AMPLITUDE 
--------------------------------------------------
 |  41   | 111111111 | 111111111 |       |     9.9501427448854E-01
--------------------------------------------------
*** Contributions RASCI wfn    Active:   0.00
                                 Hole:  99.01
                                 Part:   0.99

      Mulliken population analysis 
 ---------------------------------------------------
   Atom    Charge (a.u.)   Spin (a.u.)  
 ---------------------------------------------------
   1 Cu    0.653321        0.000370 
   2 Cl   -0.663330        0.249907 
   3 Cl   -0.663330        0.249907 
   4 Cl   -0.663330        0.249907 
   5 Cl   -0.663330        0.249907 
 ---------------------------------------------------
   Sum:   -2.000000        1.000000 
 ---------------------------------------------------
 
  
 NATURAL OCCUPATION NUMBERS (higher than 1.0E-05)
            1           2           3           4           5           6
    1   2.0000000   2.0000000   2.0000000   2.0000000   2.0000000   2.0000000
            7           8           9          10          11          12
    1   2.0000000   2.0000000   2.0000000   2.0000000   2.0000000   2.0000000
           13          14          15          16          17          18
    1   2.0000000   2.0000000   2.0000000   2.0000000   2.0000000   2.0000000
           19          20          21          22          23          24
    1   2.0000000   2.0000000   2.0000000   2.0000000   2.0000000   2.0000000
           25          26          27          28          29          30
    1   2.0000000   2.0000000   2.0000000   2.0000000   2.0000000   2.0000000
           31          32          33          34          35          36
    1   2.0000000   2.0000000   2.0000000   2.0000000   2.0000000   2.0000000
           37          38          39          40          41          42
    1   2.0000000   2.0000000   2.0000000   2.0000000   1.9999688   1.9999688
           43          44          45          46          47          48
    1   1.9999272   1.9997663   1.9994085   1.9985377   1.9985377   1.9939187
           49          50          51          52          53          54
    1   1.9900732   1.0099466   0.0059448   0.0013332   0.0013332   0.0004558
           55          56          57          58          59          60
    1   0.0002939   0.0001602   0.0000508   0.0000444   0.0000335   0.0000335
           61          62          63          64          65          66
    1   0.0000277   0.0000277   0.0000266   0.0000217   0.0000206   0.0000202
           67          68          69          70          71          72
    1   0.0000178   0.0000178   0.0000161   0.0000149   0.0000135   0.0000116
           73
    1   0.0000116
  
*** Unpaired Electrons
 Yamaguchi Nd:         1.06
 Head-Gordon Nu:       1.02
 Head-Gordon Nu_nl:    1.00
  
**************************************************
 RAS-CI total energy for state   6:  -3476.971046710342
  Excitation energy (eV) =  5.478721975354
  Warning: not all configurations have same symmetry
  State symmetry: *B3u   (D2h      )
  <S^2>      :  0.7500
  Dipole Moment:    0.0000 X    -0.0000 Y     0.0000 Z
  Trans. Moment:   -0.0000 X    -0.0000 Y    -0.0000 Z
  Strength   :  0.000000
  Natural transition orbitals ( 1 -> 6 ):
   e-/hole pair  1 alpha:  ampl =  0.016554 (  0.0%)   [9 : 10]
   e-/hole pair  2 alpha:  ampl =  0.004552 (  0.0%)   [8 : 11]
   e-/hole pair  1 beta :  ampl =  0.950612 ( 90.4%)   [9 : 10]
   e-/hole pair  2 beta :  ampl =  0.048800 (  0.2%)   [8 : 11]
   Sum of square amplitudes: 0.91

 NATURAL OCCUPATION NUMBERS (higher than 1.0E-05)
            1           2           3           4           5           6
    1   2.0000000   2.0000000   2.0000000   2.0000000   2.0000000   2.0000000
            7           8           9          10          11          12
    1   2.0000000   2.0000000   2.0000000   2.0000000   2.0000000   2.0000000
           13          14          15          16          17          18
    1   2.0000000   2.0000000   2.0000000   2.0000000   2.0000000   2.0000000
           19          20          21          22          23          24
    1   2.0000000   2.0000000   2.0000000   2.0000000   2.0000000   2.0000000
           25          26          27          28          29          30
    1   2.0000000   2.0000000   2.0000000   2.0000000   2.0000000   2.0000000
           31          32          33          34          35          36
    1   2.0000000   2.0000000   2.0000000   2.0000000   2.0000000   2.0000000
           37          38          39          40          41          42
    1   2.0000000   2.0000000   2.0000000   2.0000000   1.9998188   1.9996911
           43          44          45          46          47          48
    1   1.9996911   1.9994534   1.9940402   1.9937134   1.9933725   1.9933725
           49          50          51          52          53          54
    1   1.9668348   1.0296887   0.0065305   0.0065305   0.0058393   0.0052492
           55          56          57          58          59          60
    1   0.0049263   0.0002905   0.0002087   0.0002087   0.0001449   0.0001274
           61          62          63          64          65          66
    1   0.0000609   0.0000609   0.0000319   0.0000253   0.0000210   0.0000152
           67
    1   0.0000115

  Amplitudes : 
  
 | HOLE  | ALPHA     | BETA      | PART  |    AMPLITUDE 
--------------------------------------------------
 |       | 111111111 | 101111111 |       |     2.5942796839356E-01
 |  37   | 111111111 | 111111111 |       |     9.4887132516708E-01
--------------------------------------------------
*** Contributions RASCI wfn    Active:   6.73
                                 Hole:  90.04
                                 Part:   3.23

      Mulliken population analysis 
 ---------------------------------------------------
   Atom    Charge (a.u.)   Spin (a.u.)  
 ---------------------------------------------------
   1 Cu    1.535977        0.931548 
   2 Cl   -0.883994        0.017113 
   3 Cl   -0.883994        0.017113 
   4 Cl   -0.883994        0.017113 
   5 Cl   -0.883994        0.017113 
 ---------------------------------------------------
   Sum:   -2.000000        1.000000 
 ---------------------------------------------------
 
  
 NATURAL OCCUPATION NUMBERS (higher than 1.0E-05)
            1           2           3           4           5           6
    1   2.0000000   2.0000000   2.0000000   2.0000000   2.0000000   2.0000000
            7           8           9          10          11          12
    1   2.0000000   2.0000000   2.0000000   2.0000000   2.0000000   2.0000000
           13          14          15          16          17          18
    1   2.0000000   2.0000000   2.0000000   2.0000000   2.0000000   2.0000000
           19          20          21          22          23          24
    1   2.0000000   2.0000000   2.0000000   2.0000000   2.0000000   2.0000000
           25          26          27          28          29          30
    1   2.0000000   2.0000000   2.0000000   2.0000000   2.0000000   2.0000000
           31          32          33          34          35          36
    1   2.0000000   2.0000000   2.0000000   2.0000000   2.0000000   2.0000000
           37          38          39          40          41          42
    1   2.0000000   2.0000000   2.0000000   2.0000000   1.9998188   1.9996911
           43          44          45          46          47          48
    1   1.9996911   1.9994534   1.9940402   1.9937134   1.9933725   1.9933725
           49          50          51          52          53          54
    1   1.9668348   1.0296887   0.0065305   0.0065305   0.0058393   0.0052492
           55          56          57          58          59          60
    1   0.0049263   0.0002905   0.0002087   0.0002087   0.0001449   0.0001274
           61          62          63          64          65          66
    1   0.0000609   0.0000609   0.0000319   0.0000253   0.0000210   0.0000152
           67
    1   0.0000115
  
*** Unpaired Electrons
 Yamaguchi Nd:         1.18
 Head-Gordon Nu:       1.06
 Head-Gordon Nu_nl:    1.00
  
**************************************************
 RAS-CI total energy for state   7:  -3476.965407869106
  Excitation energy (eV) =  5.632162652193
  State symmetry: B3u   (D2h      )
  <S^2>      :  0.7500
  Dipole Moment:   -0.0000 X    -0.0000 Y     0.0000 Z
  Trans. Moment:   -0.7854 X     0.0237 Y     0.0000 Z
  Strength   :  0.085198
  Natural transition orbitals ( 1 -> 7 ):
   e-/hole pair  1 alpha:  ampl =  0.019674 (  0.0%)   [9 : 10]
   e-/hole pair  2 alpha:  ampl =  0.018791 (  0.0%)   [8 : 11]
   e-/hole pair  1 beta :  ampl =  0.946730 ( 89.6%)   [9 : 10]
   e-/hole pair  2 beta :  ampl =  0.022527 (  0.1%)   [8 : 11]
   Sum of square amplitudes: 0.90

 NATURAL OCCUPATION NUMBERS (higher than 1.0E-05)
            1           2           3           4           5           6
    1   2.0000000   2.0000000   2.0000000   2.0000000   2.0000000   2.0000000
            7           8           9          10          11          12
    1   2.0000000   2.0000000   2.0000000   2.0000000   2.0000000   2.0000000
           13          14          15          16          17          18
    1   2.0000000   2.0000000   2.0000000   2.0000000   2.0000000   2.0000000
           19          20          21          22          23          24
    1   2.0000000   2.0000000   2.0000000   2.0000000   2.0000000   2.0000000
           25          26          27          28          29          30
    1   2.0000000   2.0000000   2.0000000   2.0000000   2.0000000   2.0000000
           31          32          33          34          35          36
    1   2.0000000   2.0000000   2.0000000   2.0000000   2.0000000   2.0000000
           37          38          39          40          41          42
    1   2.0000000   2.0000000   2.0000000   2.0000000   1.9996827   1.9994416
           43          44          45          46          47          48
    1   1.9993639   1.9992359   1.9977672   1.9971066   1.9967811   1.9929858
           49          50          51          52          53          54
    1   1.9898177   1.0139087   0.0046071   0.0025436   0.0024331   0.0011698
           55          56          57          58          59          60
    1   0.0005504   0.0005041   0.0004789   0.0003916   0.0002735   0.0002495
           61          62          63          64          65          66
    1   0.0001560   0.0001246   0.0001089   0.0000859   0.0000408   0.0000281
           67          68          69          70          71          72
    1   0.0000241   0.0000237   0.0000189   0.0000169   0.0000150   0.0000142
           73
    1   0.0000142

  Amplitudes : 
  
 | HOLE  | ALPHA     | BETA      | PART  |    AMPLITUDE 
--------------------------------------------------
 |  40   | 111111111 | 111111111 |       |     9.9081114735310E-01
--------------------------------------------------
*** Contributions RASCI wfn    Active:   0.00
                                 Hole:  98.61
                                 Part:   1.39

      Mulliken population analysis 
 ---------------------------------------------------
   Atom    Charge (a.u.)   Spin (a.u.)  
 ---------------------------------------------------
   1 Cu    0.655365        0.000675 
   2 Cl   -0.728217        0.185606 
   3 Cl   -0.599466        0.314056 
   4 Cl   -0.599466        0.314056 
   5 Cl   -0.728217        0.185606 
 ---------------------------------------------------
   Sum:   -2.000000        1.000000 
 ---------------------------------------------------
 
  
 NATURAL OCCUPATION NUMBERS (higher than 1.0E-05)
            1           2           3           4           5           6
    1   2.0000000   2.0000000   2.0000000   2.0000000   2.0000000   2.0000000
            7           8           9          10          11          12
    1   2.0000000   2.0000000   2.0000000   2.0000000   2.0000000   2.0000000
           13          14          15          16          17          18
    1   2.0000000   2.0000000   2.0000000   2.0000000   2.0000000   2.0000000
           19          20          21          22          23          24
    1   2.0000000   2.0000000   2.0000000   2.0000000   2.0000000   2.0000000
           25          26          27          28          29          30
    1   2.0000000   2.0000000   2.0000000   2.0000000   2.0000000   2.0000000
           31          32          33          34          35          36
    1   2.0000000   2.0000000   2.0000000   2.0000000   2.0000000   2.0000000
           37          38          39          40          41          42
    1   2.0000000   2.0000000   2.0000000   2.0000000   1.9996827   1.9994416
           43          44          45          46          47          48
    1   1.9993639   1.9992359   1.9977672   1.9971066   1.9967811   1.9929858
           49          50          51          52          53          54
    1   1.9898177   1.0139087   0.0046071   0.0025436   0.0024331   0.0011698
           55          56          57          58          59          60
    1   0.0005504   0.0005041   0.0004789   0.0003916   0.0002735   0.0002495
           61          62          63          64          65          66
    1   0.0001560   0.0001246   0.0001089   0.0000859   0.0000408   0.0000281
           67          68          69          70          71          72
    1   0.0000241   0.0000237   0.0000189   0.0000169   0.0000150   0.0000142
           73
    1   0.0000142
  
*** Unpaired Electrons
 Yamaguchi Nd:         1.08
 Head-Gordon Nu:       1.03
 Head-Gordon Nu_nl:    1.00
  
**************************************************
 RAS-CI total energy for state   8:  -3476.965407869065
  Excitation energy (eV) =  5.632162653324
  State symmetry: Ag    (D2h      )
  <S^2>      :  0.7500
  Dipole Moment:    0.0000 X     0.0000 Y     0.0000 Z
  Trans. Moment:   -0.0237 X    -0.7854 Y    -0.0000 Z
  Strength   :  0.085198
  Natural transition orbitals ( 1 -> 8 ):
   e-/hole pair  1 alpha:  ampl =  0.019674 (  0.0%)   [9 : 10]
   e-/hole pair  2 alpha:  ampl =  0.018791 (  0.0%)   [8 : 11]
   e-/hole pair  1 beta :  ampl =  0.946730 ( 89.6%)   [9 : 10]
   e-/hole pair  2 beta :  ampl =  0.022527 (  0.1%)   [8 : 11]
   Sum of square amplitudes: 0.90

 NATURAL OCCUPATION NUMBERS (higher than 1.0E-05)
            1           2           3           4           5           6
    1   2.0000000   2.0000000   2.0000000   2.0000000   2.0000000   2.0000000
            7           8           9          10          11          12
    1   2.0000000   2.0000000   2.0000000   2.0000000   2.0000000   2.0000000
           13          14          15          16          17          18
    1   2.0000000   2.0000000   2.0000000   2.0000000   2.0000000   2.0000000
           19          20          21          22          23          24
    1   2.0000000   2.0000000   2.0000000   2.0000000   2.0000000   2.0000000
           25          26          27          28          29          30
    1   2.0000000   2.0000000   2.0000000   2.0000000   2.0000000   2.0000000
           31          32          33          34          35          36
    1   2.0000000   2.0000000   2.0000000   2.0000000   2.0000000   2.0000000
           37          38          39          40          41          42
    1   2.0000000   2.0000000   2.0000000   2.0000000   1.9996827   1.9994416
           43          44          45          46          47          48
    1   1.9993639   1.9992359   1.9977672   1.9971066   1.9967811   1.9929858
           49          50          51          52          53          54
    1   1.9898177   1.0139087   0.0046071   0.0025436   0.0024331   0.0011698
           55          56          57          58          59          60
    1   0.0005504   0.0005041   0.0004789   0.0003916   0.0002735   0.0002495
           61          62          63          64          65          66
    1   0.0001560   0.0001246   0.0001089   0.0000859   0.0000408   0.0000281
           67          68          69          70          71          72
    1   0.0000241   0.0000237   0.0000189   0.0000169   0.0000150   0.0000142
           73
    1   0.0000142

  Amplitudes : 
  
 | HOLE  | ALPHA     | BETA      | PART  |    AMPLITUDE 
--------------------------------------------------
 |  39   | 111111111 | 111111111 |       |     9.9081114713719E-01
--------------------------------------------------
*** Contributions RASCI wfn    Active:   0.00
                                 Hole:  98.61
                                 Part:   1.39

      Mulliken population analysis 
 ---------------------------------------------------
   Atom    Charge (a.u.)   Spin (a.u.)  
 ---------------------------------------------------
   1 Cu    0.655365        0.000675 
   2 Cl   -0.599466        0.314056 
   3 Cl   -0.728217        0.185606 
   4 Cl   -0.728217        0.185606 
   5 Cl   -0.599466        0.314056 
 ---------------------------------------------------
   Sum:   -2.000000        1.000000 
 ---------------------------------------------------
 
  
 NATURAL OCCUPATION NUMBERS (higher than 1.0E-05)
            1           2           3           4           5           6
    1   2.0000000   2.0000000   2.0000000   2.0000000   2.0000000   2.0000000
            7           8           9          10          11          12
    1   2.0000000   2.0000000   2.0000000   2.0000000   2.0000000   2.0000000
           13          14          15          16          17          18
    1   2.0000000   2.0000000   2.0000000   2.0000000   2.0000000   2.0000000
           19          20          21          22          23          24
    1   2.0000000   2.0000000   2.0000000   2.0000000   2.0000000   2.0000000
           25          26          27          28          29          30
    1   2.0000000   2.0000000   2.0000000   2.0000000   2.0000000   2.0000000
           31          32          33          34          35          36
    1   2.0000000   2.0000000   2.0000000   2.0000000   2.0000000   2.0000000
           37          38          39          40          41          42
    1   2.0000000   2.0000000   2.0000000   2.0000000   1.9996827   1.9994416
           43          44          45          46          47          48
    1   1.9993639   1.9992359   1.9977672   1.9971066   1.9967811   1.9929858
           49          50          51          52          53          54
    1   1.9898177   1.0139087   0.0046071   0.0025436   0.0024331   0.0011698
           55          56          57          58          59          60
    1   0.0005504   0.0005041   0.0004789   0.0003916   0.0002735   0.0002495
           61          62          63          64          65          66
    1   0.0001560   0.0001246   0.0001089   0.0000859   0.0000408   0.0000281
           67          68          69          70          71          72
    1   0.0000241   0.0000237   0.0000189   0.0000169   0.0000150   0.0000142
           73
    1   0.0000142
  
*** Unpaired Electrons
 Yamaguchi Nd:         1.08
 Head-Gordon Nu:       1.03
 Head-Gordon Nu_nl:    1.00
  
**************************************************
 RAS-CI total energy for state   9:  -3476.961938758166
  Excitation energy (eV) =  5.726561963778
  State symmetry: B2u   (D2h      )
  <S^2>      :  0.7500
  Dipole Moment:   -0.0000 X    -0.0000 Y     0.0000 Z
  Trans. Moment:   -0.0000 X    -0.0000 Y    -0.0202 Z
  Strength   :  0.000057
  Natural transition orbitals ( 1 -> 9 ):
   e-/hole pair  1 alpha:  ampl =  0.005643 (  0.0%)   [9 : 10]
   e-/hole pair  2 alpha:  ampl =  0.005643 (  0.0%)   [8 : 11]
   e-/hole pair  1 beta :  ampl =  0.943121 ( 88.9%)   [9 : 10]
   e-/hole pair  2 beta :  ampl =  0.033146 (  0.1%)   [8 : 11]
   Sum of square amplitudes: 0.89

 NATURAL OCCUPATION NUMBERS (higher than 1.0E-05)
            1           2           3           4           5           6
    1   2.0000000   2.0000000   2.0000000   2.0000000   2.0000000   2.0000000
            7           8           9          10          11          12
    1   2.0000000   2.0000000   2.0000000   2.0000000   2.0000000   2.0000000
           13          14          15          16          17          18
    1   2.0000000   2.0000000   2.0000000   2.0000000   2.0000000   2.0000000
           19          20          21          22          23          24
    1   2.0000000   2.0000000   2.0000000   2.0000000   2.0000000   2.0000000
           25          26          27          28          29          30
    1   2.0000000   2.0000000   2.0000000   2.0000000   2.0000000   2.0000000
           31          32          33          34          35          36
    1   2.0000000   2.0000000   2.0000000   2.0000000   2.0000000   2.0000000
           37          38          39          40          41          42
    1   2.0000000   2.0000000   2.0000000   2.0000000   1.9991754   1.9991062
           43          44          45          46          47          48
    1   1.9988028   1.9988028   1.9987460   1.9981106   1.9919952   1.9862191
           49          50          51          52          53          54
    1   1.9862191   1.0214115   0.0058171   0.0045278   0.0045278   0.0014749
           55          56          57          58          59          60
    1   0.0008507   0.0008507   0.0008104   0.0006003   0.0006003   0.0004266
           61          62          63          64          65          66
    1   0.0002027   0.0002027   0.0001885   0.0000491   0.0000453   0.0000453
           67          68          69          70          71          72
    1   0.0000219   0.0000219   0.0000212   0.0000212   0.0000191   0.0000158
           73          74          75
    1   0.0000115   0.0000115   0.0000111

  Amplitudes : 
  
 | HOLE  | ALPHA     | BETA      | PART  |    AMPLITUDE 
--------------------------------------------------
 |  38   | 111111111 | 111111111 |       |     9.8923632171362E-01
--------------------------------------------------
*** Contributions RASCI wfn    Active:   0.00
                                 Hole:  97.86
                                 Part:   2.14

      Mulliken population analysis 
 ---------------------------------------------------
   Atom    Charge (a.u.)   Spin (a.u.)  
 ---------------------------------------------------
   1 Cu    0.654797        0.001210 
   2 Cl   -0.663699        0.249698 
   3 Cl   -0.663699        0.249698 
   4 Cl   -0.663699        0.249698 
   5 Cl   -0.663699        0.249698 
 ---------------------------------------------------
   Sum:   -2.000000        1.000000 
 ---------------------------------------------------
 
  
 NATURAL OCCUPATION NUMBERS (higher than 1.0E-05)
            1           2           3           4           5           6
    1   2.0000000   2.0000000   2.0000000   2.0000000   2.0000000   2.0000000
            7           8           9          10          11          12
    1   2.0000000   2.0000000   2.0000000   2.0000000   2.0000000   2.0000000
           13          14          15          16          17          18
    1   2.0000000   2.0000000   2.0000000   2.0000000   2.0000000   2.0000000
           19          20          21          22          23          24
    1   2.0000000   2.0000000   2.0000000   2.0000000   2.0000000   2.0000000
           25          26          27          28          29          30
    1   2.0000000   2.0000000   2.0000000   2.0000000   2.0000000   2.0000000
           31          32          33          34          35          36
    1   2.0000000   2.0000000   2.0000000   2.0000000   2.0000000   2.0000000
           37          38          39          40          41          42
    1   2.0000000   2.0000000   2.0000000   2.0000000   1.9991754   1.9991062
           43          44          45          46          47          48
    1   1.9988028   1.9988028   1.9987460   1.9981106   1.9919952   1.9862191
           49          50          51          52          53          54
    1   1.9862191   1.0214115   0.0058171   0.0045278   0.0045278   0.0014749
           55          56          57          58          59          60
    1   0.0008507   0.0008507   0.0008104   0.0006003   0.0006003   0.0004266
           61          62          63          64          65          66
    1   0.0002027   0.0002027   0.0001885   0.0000491   0.0000453   0.0000453
           67          68          69          70          71          72
    1   0.0000219   0.0000219   0.0000212   0.0000212   0.0000191   0.0000158
           73          74          75
    1   0.0000115   0.0000115   0.0000111
  
*** Unpaired Electrons
 Yamaguchi Nd:         1.13
 Head-Gordon Nu:       1.04
 Head-Gordon Nu_nl:    1.00
  
**************************************************
 RAS-CI total energy for state  10:  -3476.940928081712
  Excitation energy (eV) =  6.298291558766
  Warning: not all configurations have same symmetry
  State symmetry: *B2u   (D2h      )
  <S^2>      :  0.7500
  Dipole Moment:    0.0000 X     0.0000 Y     0.0000 Z
  Trans. Moment:    0.0000 X    -0.0000 Y    -0.0000 Z
  Strength   :  0.000000
  Natural transition orbitals ( 1 -> 10 ):
   e-/hole pair  1 alpha:  ampl =  0.009612 (  0.0%)   [9 : 10]
   e-/hole pair  2 alpha:  ampl =  0.004591 (  0.0%)   [8 : 11]
   e-/hole pair  1 beta :  ampl =  0.954770 ( 91.2%)   [9 : 10]
   e-/hole pair  2 beta :  ampl =  0.020367 (  0.0%)   [8 : 11]
   Sum of square amplitudes: 0.91

 NATURAL OCCUPATION NUMBERS (higher than 1.0E-05)
            1           2           3           4           5           6
    1   2.0000000   2.0000000   2.0000000   2.0000000   2.0000000   2.0000000
            7           8           9          10          11          12
    1   2.0000000   2.0000000   2.0000000   2.0000000   2.0000000   2.0000000
           13          14          15          16          17          18
    1   2.0000000   2.0000000   2.0000000   2.0000000   2.0000000   2.0000000
           19          20          21          22          23          24
    1   2.0000000   2.0000000   2.0000000   2.0000000   2.0000000   2.0000000
           25          26          27          28          29          30
    1   2.0000000   2.0000000   2.0000000   2.0000000   2.0000000   2.0000000
           31          32          33          34          35          36
    1   2.0000000   2.0000000   2.0000000   2.0000000   2.0000000   2.0000000
           37          38          39          40          41          42
    1   2.0000000   2.0000000   2.0000000   2.0000000   2.0000000   1.9999382
           43          44          45          46          47          48
    1   1.9998793   1.9998308   1.9994479   1.9991973   1.9991726   1.9972222
           49          50          51          52          53          54
    1   1.9941162   1.0049672   0.0026701   0.0008987   0.0007425   0.0005622
           55          56          57          58          59          60
    1   0.0005495   0.0002061   0.0001122   0.0000939   0.0000841   0.0000465
           61          62          63          64          65          66
    1   0.0000378   0.0000336   0.0000299   0.0000288   0.0000251   0.0000208
           67          68          69
    1   0.0000193   0.0000179   0.0000165

  Amplitudes : 
  
 | HOLE  | ALPHA     | BETA      | PART  |    AMPLITUDE 
--------------------------------------------------
 |       | 111111111 | 111111101 |       |     7.5687778088451E-01
 |       | 111111111 | 111101111 |       |    -6.3313928270146E-01
--------------------------------------------------
*** Contributions RASCI wfn    Active:  97.38
                                 Hole:   0.00
                                 Part:   2.62

      Mulliken population analysis 
 ---------------------------------------------------
   Atom    Charge (a.u.)   Spin (a.u.)  
 ---------------------------------------------------
   1 Cu    0.596268        0.042958 
   2 Cl   -0.869967       -0.001462 
   3 Cl   -0.428167        0.479983 
   4 Cl   -0.428167        0.479983 
   5 Cl   -0.869967       -0.001462 
 ---------------------------------------------------
   Sum:   -2.000000        1.000000 
 ---------------------------------------------------
 
  
 NATURAL OCCUPATION NUMBERS (higher than 1.0E-05)
            1           2           3           4           5           6
    1   2.0000000   2.0000000   2.0000000   2.0000000   2.0000000   2.0000000
            7           8           9          10          11          12
    1   2.0000000   2.0000000   2.0000000   2.0000000   2.0000000   2.0000000
           13          14          15          16          17          18
    1   2.0000000   2.0000000   2.0000000   2.0000000   2.0000000   2.0000000
           19          20          21          22          23          24
    1   2.0000000   2.0000000   2.0000000   2.0000000   2.0000000   2.0000000
           25          26          27          28          29          30
    1   2.0000000   2.0000000   2.0000000   2.0000000   2.0000000   2.0000000
           31          32          33          34          35          36
    1   2.0000000   2.0000000   2.0000000   2.0000000   2.0000000   2.0000000
           37          38          39          40          41          42
    1   2.0000000   2.0000000   2.0000000   2.0000000   2.0000000   1.9999382
           43          44          45          46          47          48
    1   1.9998793   1.9998308   1.9994479   1.9991973   1.9991726   1.9972222
           49          50          51          52          53          54
    1   1.9941162   1.0049672   0.0026701   0.0008987   0.0007425   0.0005622
           55          56          57          58          59          60
    1   0.0005495   0.0002061   0.0001122   0.0000939   0.0000841   0.0000465
           61          62          63          64          65          66
    1   0.0000378   0.0000336   0.0000299   0.0000288   0.0000251   0.0000208
           67          68          69
    1   0.0000193   0.0000179   0.0000165
  
*** Unpaired Electrons
 Yamaguchi Nd:         1.03
 Head-Gordon Nu:       1.01
 Head-Gordon Nu_nl:    1.00
  
--------------------------------------------------
 Interstate Transition Properties
--------------------------------------------------
State A: Root  1
State B: Root  2
  
Angular momentum components
< B | Lx | A > =     0.000000000i
< B | Ly | A > =     0.000000000i
< B | Lz | A > =    -1.609923489i
  
Norm of one-particle transition density matrix
||gamma^AB||_total       =  0.992794
||gamma^AB||_symmetrized =  0.702054
||gamma^AB||_anti-symm   =  0.701969
  
Spin-orbit couplings
 Using HF (reference) density for the 2-elec mean-field SOC contribution
KET: S',Sz' (Root   1) =  0.500 0.500
BRA: S ,Sz  (Root   2) =  0.500 0.500
Clebsh-Gordan coefficient: < 0.500, 0.500; 1.000, 0.000| 0.500, 0.500> = -0.577
 Computing 1e-SO integrals
 1e Reduced matrix elements (cm-1)
<S|| Hso(L-) ||S'> =    -0.0000000001    -0.0000000000
<S|| Hso(L0) ||S'> =     0.0000000000 -2254.8387812675
<S|| Hso(L+) ||S'> =    -0.0000000001     0.0000000000
 1-elec SOC matrix (cm-1): < B(S,Sz) | Hso(1e) | A(S',Sz') >
                     |Sz'=-0.50>              |Sz'= 0.50>
 <Sz=-0.50|    0.000000 ***********i     0.000000   -0.000000i
 <Sz= 0.50|   -0.000000   -0.000000i    -0.000000 1301.831777i
1-elec SOCC =  1841.068155448 cm-1
 Computing 2e-SOMF integrals
 Averagin spin alpha/beta reference densities
 2e-SOMF Reduced matrix elements (cm-1)
<S|| Hso(L-) ||S'> =     0.0000000000     0.0000000000
<S|| Hso(L0) ||S'> =     0.0000000000   913.2614596646
<S|| Hso(L+) ||S'> =     0.0000000000    -0.0000000000
 2-elec mean-field SOC matrix (cm-1): < B(S,Sz) | Hso(2e-mf) | A(S',Sz') >
                     |Sz'=-0.50>              |Sz'= 0.50>
 <Sz=-0.50|    0.000000  527.271750i    -0.000000    0.000000i
 <Sz= 0.50|    0.000000    0.000000i     0.000000 -527.271750i
 Total mean-field SOC matrix (cm-1): < B(S,Sz) | Hsomf | A(S',Sz') >
                     |Sz'=-0.50>              |Sz'= 0.50>
 <Sz=-0.50|    0.000000 -774.560028i     0.000000   -0.000000i
 <Sz= 0.50|   -0.000000   -0.000000i    -0.000000  774.560028i
Mean-Field SOCC =  1095.393296139 cm-1
   
**************************************************
State A: Root  1
State B: Root  3
  
Angular momentum components
< B | Lx | A > =    -0.779530731i
< B | Ly | A > =    -0.006373838i
< B | Lz | A > =     0.000000000i
  
Norm of one-particle transition density matrix
||gamma^AB||_total       =  0.992281
||gamma^AB||_symmetrized =  0.701981
||gamma^AB||_anti-symm   =  0.701317
  
Spin-orbit couplings
 Using HF (reference) density for the 2-elec mean-field SOC contribution
KET: S',Sz' (Root   1) =  0.500 0.500
BRA: S ,Sz  (Root   3) =  0.500 0.500
Clebsh-Gordan coefficient: < 0.500, 0.500; 1.000, 0.000| 0.500, 0.500> = -0.577
 Reading 1e-SO integrals
 1e Reduced matrix elements (cm-1)
<S|| Hso(L-) ||S'> =     6.4464973318   788.4171396803
<S|| Hso(L0) ||S'> =     0.0000000000     0.0000000000
<S|| Hso(L+) ||S'> =     6.4464973318  -788.4171396803
 1-elec SOC matrix (cm-1): < B(S,Sz) | Hso(1e) | A(S',Sz') >
                     |Sz'=-0.50>              |Sz'= 0.50>
 <Sz=-0.50|    0.000000    0.000000i    -5.263543  643.739899i
 <Sz= 0.50|    5.263543  643.739899i     0.000000   -0.000000i
1-elec SOCC =   910.416127178 cm-1
 Reading 2e-SOMF integrals
 2e-SOMF Reduced matrix elements (cm-1)
<S|| Hso(L-) ||S'> =    -2.6405450314  -322.9429653764
<S|| Hso(L0) ||S'> =     0.0000000000    -0.0000000000
<S|| Hso(L+) ||S'> =    -2.6405450314   322.9429653764
 2-elec mean-field SOC matrix (cm-1): < B(S,Sz) | Hso(2e-mf) | A(S',Sz') >
                     |Sz'=-0.50>              |Sz'= 0.50>
 <Sz=-0.50|    0.000000   -0.000000i     2.155996 -263.681827i
 <Sz= 0.50|   -2.155996 -263.681827i    -0.000000    0.000000i
 Total mean-field SOC matrix (cm-1): < B(S,Sz) | Hsomf | A(S',Sz') >
                     |Sz'=-0.50>              |Sz'= 0.50>
 <Sz=-0.50|    0.000000    0.000000i    -3.107547  380.058072i
 <Sz= 0.50|    3.107547  380.058072i     0.000000   -0.000000i
Mean-Field SOCC =   537.501246159 cm-1
   
**************************************************
State A: Root  1
State B: Root  4
  
Angular momentum components
< B | Lx | A > =     0.006373939i
< B | Ly | A > =    -0.779543155i
< B | Lz | A > =    -0.000000000i
  
Norm of one-particle transition density matrix
||gamma^AB||_total       =  0.992280
||gamma^AB||_symmetrized =  0.701980
||gamma^AB||_anti-symm   =  0.701316
  
Spin-orbit couplings
 Using HF (reference) density for the 2-elec mean-field SOC contribution
KET: S',Sz' (Root   1) =  0.500 0.500
BRA: S ,Sz  (Root   4) =  0.500 0.500
Clebsh-Gordan coefficient: < 0.500, 0.500; 1.000, 0.000| 0.500, 0.500> = -0.577
 Reading 1e-SO integrals
 1e Reduced matrix elements (cm-1)
[...]
   102    1.138638625767e+00
   103    2.026821893234e-15
   104   -1.135850273789e-14
   105    5.989488651974e-02
   106    1.034647407736e-15
   107    5.567181849862e-16
   108    4.613863382020e-15
   109   -1.701056203312e-14
   110    2.096754140968e-01
   111   -3.564932136319e-15
   112    7.645997784110e-16
   113    4.085655216290e-05
   114    4.781213666160e-16
   115    4.801594507731e-16
   116    5.546913689991e-04
   117    5.090062649139e-16
   118   -3.522967352690e-16
   119    6.424636399704e-16
   120   -6.584838821969e-16
   121   -2.944338391029e-16
   122    4.115930694067e-15
   123   -8.142493869784e-15
   124   -2.006442423159e-14
   125    4.096211528914e-15
   126    3.432868287376e-15
   127   -9.549049324401e-02
   128    1.533549494207e-15
   129    3.278037251878e-16
   130   -9.159284258732e-03
   131   -2.636853135569e-15
   132    5.411416526756e-16
   133   -2.969104566115e-02
   134   -2.765078270775e-14
   135   -2.722075282419e-14
   136    8.295890487294e-01
   137    3.655159134529e-14
   138    2.113210970845e-14
   139   -1.138638625767e+00
   140    1.296532847506e-15
   141   -9.491479584461e-15
   142    5.989488651974e-02
   143    2.532197827679e-16
   144   -6.326901584997e-16
   145    2.687493566837e-15
   146   -1.258663896917e-14
   147    2.096754140969e-01
   148    3.168188504747e-15
   149   -5.046053427637e-15
   150   -4.085655216365e-05
   151   -1.474806810925e-16
   152    1.011887677470e-16
   153   -5.546913689998e-04
   154   -3.918194948893e-16
   155    4.752940648770e-16
   156    7.903249272999e-17
   157    1.398620040673e-16
   158    1.383778777105e-16
   159   -9.231430824106e-16
   160    1.854119996653e-15
   161    1.621295954082e-14
   162   -8.130565213620e-17
   163    3.246131685292e-15
   164    2.250495728900e-14
   165    3.073628055869e-16
   166    6.770198215509e-16
   167    5.370467559432e-15
   168   -1.179803481556e-15
   169   -6.734429357526e-17
   170   -7.132753911029e-15
   171    4.815203117115e-15
   172   -2.653718307551e-14
   173   -1.470154022392e-13
   174   -5.192573692366e-15
   175    3.704697380617e-14
   176    2.552152282911e-14
   177   -1.697377067527e-15
   178    1.450067720250e-14
   179    1.181211797757e-03
   180    1.651094559766e-15
   181   -2.109001277735e-15
   182   -4.283105067196e-15
   183    8.664577844271e-15
   184    3.120109500791e-02
   185    1.845200942719e-15
   186   -9.069215066582e-15
   187    1.496162958598e-15
   188    3.821318529791e-16
   189   -1.915213409461e-16
   190   -2.231380251983e-16
   191    1.215376453294e-03
   192   -2.924566179039e-16
   193   -5.352155692224e-16
Sym=X
Ene= 1.032618
Spin=Alpha
Occup=0
     1    2.666242415942e-15
     2   -7.099284654192e-15
     3    2.333840430181e-14
     4    7.440514798668e-15
     5    2.018473942872e-13
     6   -9.018687003808e-14
     7   -3.861909992754e-02
     8   -1.628565965368e-13
     9    9.651073532951e-18
    10    1.057875939906e-01
    11    4.545316201792e-13
    12    1.681669322451e-16
    13    3.953908758281e-02
    14    1.014563700704e-13
    15   -2.479701483014e-15
    16   -1.180616330133e-01
    17   -7.443202440501e-13
    18    1.068533466747e-14
    19    1.358004220340e-14
    20    1.034323401011e-14
    21   -5.441167707168e-15
    22    8.255430303463e-15
    23   -2.507272015851e-15
    24    1.933878711077e-14
    25    9.239094533327e-15
    26   -4.402410163307e-15
    27    1.019088394046e-14
    28   -3.390273304997e-14
    29   -7.862690928491e-14
    30   -2.620705261796e-14
    31    1.373076784049e-15
    32   -4.308996211820e-14
    33    1.648404574759e-13
    34    1.471581256372e-13
    35    4.094165900322e-14
    36    2.747531699450e-14
    37    1.579095211397e-13
    38    2.141091998847e-13
    39    1.975519473452e-16
    40   -1.822956213903e-03
    41   -3.933525198165e-15
    42   -1.935124401920e-16
    43    8.904088053979e-17
    44    4.950557739173e-03
    45   -1.484276585061e-14
    46    1.586063015850e-02
    47    9.183261900996e-03
    48   -1.030551791837e-01
    49    2.934548484294e-01
    50   -1.621043153177e-01
    51    8.619872234160e-02
    52   -2.692187676406e-13
    53   -5.749912026972e-16
    54    2.067443880860e-02
    55   -7.711964192511e-14
    56   -4.803686673375e-15
    57   -2.506017641234e-02
    58    1.318379317069e-13
    59    2.588493412427e-14
    60   -6.010813355645e-01
    61    1.718308841564e-12
    62   -4.914879398020e-14
    63    5.922791834096e-01
    64   -1.633540545356e-12
    65    2.333303962737e-14
    66    1.994034821362e-02
    67    6.378503414329e-15
    68    2.303544280817e-14
    69    9.553833444056e-03
    70    2.269657805871e-13
    71    8.450126588512e-02
    72    5.908754086376e-14
    73    4.647252943925e-14
    74    7.001712313601e-02
    75    9.513542588025e-13
    76   -4.468621625987e-15
    77   -6.181963320399e-05
    78    2.490069038232e-15
    79    7.630444082468e-15
    80   -6.550865956331e-16
    81   -6.046537217544e-03
    82   -1.561115969270e-14
    83    7.952305274134e-14
    84    4.576649230914e-14
    85   -5.167526077541e-13
    86    1.470211144256e-12
    87   -7.233452343166e-13
    88   -5.631418477322e-02
    89    2.928720732796e-13
    90   -2.832141498102e-15
    91   -1.675238071399e-02
    92    8.120248343929e-14
    93    8.497701062624e-16
    94    3.142743863426e-02
    95   -1.313190536021e-13
    96   -6.883407800456e-15
    97    3.457701190836e-01
    98   -1.933612681892e-12
    99    4.063424878588e-14
   100   -2.980872786426e-01
   101    1.742119459163e-12
   102   -6.000771271510e-14
   103    9.098581277323e-14
   104    2.326840603649e-15
   105   -1.546749740780e-14
   106    1.181065509026e-14
   107    6.052369234165e-02
   108    3.909812289553e-13
   109    1.093032325847e-14
   110   -1.554219600791e-14
   111    7.043690576347e-15
   112    2.511294910938e-01
   113   -1.286018381953e-15
   114    1.156722771116e-03
   115   -5.520436418862e-15
   116   -3.037726391259e-15
   117   -1.160756561339e-15
   118    5.035647631253e-03
   119    1.395717314006e-14
   120   -7.430277688564e-14
   121   -4.289952145540e-14
   122    4.830515081561e-13
   123   -1.378200919290e-12
   124    8.362556947246e-13
   125   -5.631418477306e-02
   126    2.407776176435e-13
   127   -7.367903948618e-15
   128   -1.675238071396e-02
   129    7.030316184823e-14
   130   -3.029004528730e-15
   131    3.142743863422e-02
   132   -1.226503114564e-13
   133    1.002067180929e-14
   134    3.457701190825e-01
   135   -1.517349467492e-12
   136    3.389445760667e-14
   137   -2.980872786414e-01
   138    1.243756844426e-12
   139   -3.568866941445e-14
   140   -9.164382866350e-14
   141   -2.784108847197e-14
   142    8.456787532055e-15
   143   -4.379332559106e-14
   144   -6.052369234167e-02
   145   -3.496200720238e-13
   146   -5.873037963220e-14
   147   -1.235532330034e-14
   148   -6.991471592377e-14
   149   -2.511294910938e-01
   150    5.093226634401e-16
   151    1.156722771112e-03
   152   -1.487567408321e-15
   153   -2.964087027852e-16
   154    2.249778487405e-15
   155    5.035647631254e-03
   156    1.695687440560e-14
   157   -1.586063015850e-02
   158   -9.183261900992e-03
   159    1.030551791837e-01
   160   -2.934548484292e-01
   161    1.621043153175e-01
   162    8.619872234157e-02
   163   -8.882681811446e-14
   164    5.543183578780e-15
   165    2.067443880859e-02
   166   -4.114708167095e-14
   167   -7.280554221672e-16
   168   -2.506017641232e-02
   169    1.161846833639e-13
   170    9.347857194633e-15
   171   -6.010813355643e-01
   172    3.670914653106e-13
   173   -6.423946413331e-14
   174    5.922791834094e-01
   175   -9.880974421088e-14
   176    8.094120951636e-14
   177   -1.994034821360e-02
   178    1.421377634071e-14
   179   -1.615466115410e-14
   180   -9.553833444039e-03
   181   -2.258622784670e-13
   182   -8.450126588502e-02
   183    7.769042651127e-15
   184   -1.767065040959e-14
   185   -7.001712313596e-02
   186   -1.005992719675e-12
   187    4.969437513236e-15
   188   -6.181963320368e-05
   189    7.208931247501e-15
   190   -4.973076466236e-15
   191    6.833181724837e-16
   192   -6.046537217542e-03
   193   -2.378498539660e-14
Sym=X
Ene= 1.032618
Spin=Alpha
Occup=0
     1   -7.572045878428e-15
     2    1.942455217606e-14
     3   -6.713666561018e-14
     4   -1.386287842646e-14
     5   -4.610602802553e-13
     6    1.969314871740e-13
     7   -1.429486026582e-13
     8    3.861909995636e-02
     9    1.383081464880e-16
    10    3.916773602171e-13
    11   -1.057875940700e-01
    12   -5.308371605399e-16
    13    1.483024984304e-13
    14   -3.953908761760e-02
    15   -6.761375592173e-16
    16   -5.804435600879e-13
    17    1.180616337035e-01
    18    6.043945562129e-15
    19   -3.915016174261e-14
    20   -3.087739179576e-16
    21    2.017457698039e-15
    22   -5.870436759421e-14
    23   -2.514211357026e-16
    24   -5.300550661891e-14
    25   -5.624200312344e-16
    26    1.638105031859e-15
    27   -5.306632267502e-14
    28   -6.345111560524e-16
    29    2.063502459989e-13
    30    7.507626829589e-16
    31   -4.143483082941e-15
    32    1.793558386499e-13
    33    7.920390430500e-16
    34   -3.427154427326e-13
    35    9.627951859112e-15
    36   -1.429561906904e-14
    37   -5.268603909557e-13
    38    2.589112891411e-14
    39    1.344753933131e-15
    40   -5.811097477596e-15
    41    1.822956213502e-03
    42   -6.374990251422e-17
    43   -8.545162310088e-17
    44    1.700085752379e-14
    45    4.950557736012e-03
    46    3.617577674692e-14
    47    2.154863433017e-14
    48   -2.343561857511e-13
    49    6.325084033471e-13
    50   -1.360741934502e-13
    51    2.655018901570e-13
    52    5.631418485503e-02
    53    4.176875791451e-15
    54    5.975485117113e-14
    55    1.675238072791e-02
    56    5.595575859028e-16
    57   -6.260472333222e-14
    58   -3.142743863226e-02
    59    2.656682587657e-17
    60   -1.891134399412e-12
    61   -3.457701196926e-01
    62   -3.365964585085e-14
    63    1.783881835690e-12
    64    2.980872792613e-01
    65    3.700434082437e-14
    66    5.218337141342e-15
    67    1.217877798792e-15
    68    4.687528088747e-16
    69   -1.304678363063e-14
    70   -6.052369227145e-02
    71    9.181497005789e-14
    72    9.614504553434e-15
    73    2.505381149802e-15
    74    9.143745276450e-14
    75   -2.511294908171e-01
    76    1.569641203407e-16
    77   -6.640817067639e-15
    78   -1.156722773131e-03
    79   -2.328277860585e-16
    80   -7.938464624320e-17
    81   -2.533864673525e-14
    82    5.035647635643e-03
    83   -1.586063017993e-02
    84   -9.183261917568e-03
    85    1.030551793215e-01
    86   -2.934548487509e-01
    87    1.621043152850e-01
    88   -1.705484587771e-13
    89   -8.619872230967e-02
    90   -4.015542081726e-15
    91   -5.015225264375e-14
    92   -2.067443881128e-02
    93   -4.468656623983e-16
    94    9.197863287738e-14
    95    2.506017645067e-02
    96   -1.095480586257e-15
    97    1.043812036723e-12
    98    6.010813352065e-01
    99    3.338049850309e-14
   100   -8.572426097816e-13
   101   -5.922791826852e-01
   102   -3.407683009383e-14
   103   -1.994034827095e-02
   104    1.470817378167e-16
   105    3.298665994208e-16
   106    9.553833414639e-03
   107    2.051519551575e-13
   108   -8.450126599008e-02
   109    8.461130148406e-16
   110   -3.664550566521e-15
   111    7.001712316080e-02
   112    8.235555426682e-13
   113   -7.325242690424e-17
   114   -2.031593105287e-14
   115    6.181962798211e-05
   116   -4.581821778330e-17
   117    4.506129183212e-16
   118    2.006006731343e-14
   119   -6.046537216798e-03
   120    1.586063017991e-02
   121    9.183261917559e-03
   122   -1.030551793214e-01
   123    2.934548487506e-01
   124   -1.621043152853e-01
   125   -1.649010438510e-13
   126   -8.619872230953e-02
   127   -9.476756542559e-15
   128   -4.938577646105e-14
   129   -2.067443881125e-02
   130   -1.090917038822e-15
   131    9.323272783000e-14
   132    2.506017645065e-02
   133   -1.954535169285e-15
   134    9.981157656271e-13
   135    6.010813352054e-01
   136    7.916500012701e-14
   137   -7.900317167729e-13
   138   -5.922791826839e-01
   139   -9.998897523473e-14
   140    1.994034827103e-02
   141   -8.585528763262e-17
   142    3.621916690837e-15
   143   -9.553833414533e-03
   144   -2.061816169243e-13
   145    8.450126599019e-02
   146   -2.412775627194e-15
   147    1.596781305614e-14
   148   -7.001712316061e-02
   149   -8.260139127338e-13
   150    8.294100754664e-17
   151   -2.090772866444e-14
   152    6.181962794569e-05
   153    2.744877091747e-16
   154   -8.133540461886e-17
   155    1.976662975384e-14
   156   -6.046537216791e-03
   157   -5.077029753493e-14
   158   -3.015334641299e-14
   159    3.289822242357e-13
   160   -9.225174653583e-13
   161    5.650535234114e-13
   162    3.302645953368e-13
   163    5.631418485503e-02
   164    6.266568771970e-15
   165    8.082040045578e-14
   166    1.675238072791e-02
   167    4.883043520149e-16
   168   -1.025857473658e-13
   169   -3.142743863227e-02
   170    2.068174342946e-15
   171   -2.282391112338e-12
   172   -3.457701196926e-01
   173   -5.576846828204e-14
   174    2.256933652147e-12
   175    2.980872792614e-01
   176    7.001362914836e-14
   177   -1.340421602228e-13
   178   -2.142341185707e-15
   179   -5.360873832742e-16
   180   -6.467953419181e-15
   181    6.052369227145e-02
   182   -5.287461165113e-13
   183   -1.081893563006e-14
   184   -3.786393435591e-15
   185   -1.524731592716e-13
   186    2.511294908171e-01
   187    5.220116919713e-16
   188    1.284708160307e-15
   189   -1.156722773131e-03
   190    5.738878615968e-16
   191    5.198418078491e-17
   192   -2.140634223469e-14
   193    5.035647635643e-03
Sym=X
Ene= 1.039757
Spin=Alpha
Occup=0
     1   -7.289260381821e-16
     2    1.944215595967e-15
     3   -6.309035165172e-15
     4   -1.900280924735e-15
     5   -3.528463021047e-14
     6    1.540892802907e-14
     7    2.417872378264e-15
     8   -3.403603679094e-15
     9   -2.780343475907e-11
    10   -6.729587798949e-15
    11    9.058893619629e-15
    12    7.213551003198e-11
    13   -2.197139867813e-15
    14    4.581918196261e-15
    15    7.457949945136e-11
    16    5.434380178563e-15
    17   -1.890433323663e-14
    18   -7.942651132310e-10
    19   -3.599597435899e-15
    20   -5.431928607831e-15
    21   -1.062385410087e-14
    22    6.499481132737e-17
    23    1.468821944629e-16
    24   -4.811010993662e-15
    25   -5.418176246437e-15
    26   -1.125095509515e-14
    27   -3.259220131910e-17
    28   -2.904276830070e-16
    29    1.806827352021e-14
    30    1.166010409668e-14
    31    2.646082792031e-14
    32    1.483385612584e-15
    33    1.100959424751e-15
    34   -3.078291532736e-14
    35    4.265349217166e-14
    36    6.534572141898e-14
    37   -1.187226245134e-14
    38    3.658981646017e-15
    39   -4.707707961226e-13
    40    1.954731248194e-16
    41   -1.798418128324e-16
    42   -8.529625997346e-04
    43    1.547617873070e-16
    44   -3.932405905152e-16
    45   -2.577243731283e-16
    46   -1.959176168903e-15
    47   -1.277683378361e-15
    48    1.259852711146e-14
    49   -3.681700189325e-14
    50    2.102708293137e-14
    51   -9.774202829431e-15
    52   -7.883836358982e-15
    53    7.336634381836e-02
    54   -2.705156770492e-15
    55   -1.835237870956e-15
    56    8.980316322898e-03
    57    4.068736166391e-15
    58    1.762667512617e-15
    59    1.381055579301e-02
    60    6.669312766581e-14
    61    5.788910858696e-14
    62   -6.084970779654e-01
    63   -7.238893034729e-14
    64   -6.505649895811e-14
    65    7.219266337961e-01
    66   -2.422741464656e-15
    67    2.828577490542e-02
    68   -8.409140558253e-15
    69   -3.929274128745e-15
    70    2.536122552049e-15
    71   -1.358506863393e-14
    72    1.504808008354e-01
    73   -5.749631054942e-14
    74   -1.350389772639e-14
    75    1.417508678402e-14
    76    2.830185117146e-03
    77    3.523211685091e-16
    78   -1.583682321906e-18
    79   -5.480683591307e-04
    80    1.456918793348e-16
    81    6.019908039418e-16
    82   -4.512196884187e-16
    83    6.497900493201e-16
    84    3.013406752353e-16
    85   -4.175797025054e-15
    86    1.167183230525e-14
    87   -1.441911011240e-14
    88    7.427021065597e-15
    89    2.362278040670e-15
    90   -7.336634360605e-02
    91    1.186475484972e-15
    92    4.383495193874e-16
    93   -8.980316297237e-03
    94    1.310013279886e-16
    95   -4.326930620973e-16
    96   -1.381055575054e-02
    97   -5.751322036254e-14
    98   -1.479087421464e-14
    99    6.084970762321e-01
   100    6.549458063863e-14
   101    5.784737739639e-15
   102   -7.219266317596e-01
   103   -4.364692925225e-17
   104    4.126223012193e-15
   105   -2.828577485302e-02
   106    1.987512588531e-15
   107   -1.273034256450e-15
   108   -2.962776920723e-15
   109    2.599779974904e-14
   110   -1.504808006958e-01
   111   -2.382828146828e-16
   112   -6.595037464123e-15
   113   -2.830185115356e-03
   114   -1.708227511359e-16
   115    2.942852312840e-16
   116   -5.480683449812e-04
   117   -3.832599836435e-18
   118   -3.203128664303e-16
   119    9.686434178837e-16
   120   -1.871779442195e-15
   121   -1.099801791164e-15
   122    1.202769869425e-14
   123   -3.284567037763e-14
   124    5.267402998418e-15
   125    2.394861762906e-15
   126    1.215824143745e-14
   127   -7.336634360601e-02
   128    1.148234869762e-15
   129    3.293222096907e-15
   130   -8.980316297233e-03
   131   -3.690987766146e-15
   132   -4.730332025400e-15
   133   -1.381055575054e-02
   134   -5.659862873304e-15
   135   -8.442467825986e-14
   136    6.084970762319e-01
   137   -6.551995209818e-15
   138    8.621225345731e-14
   139   -7.219266317593e-01
   140   -2.703566929200e-15
   141   -4.891189019672e-15
   142    2.828577485299e-02
   143    3.352126937984e-15
   144    6.228283811140e-15
   145   -1.472213616762e-14
   146   -2.896969948733e-14
   147    1.504808006957e-01
   148    1.280411939097e-14
   149    2.550621036348e-14
   150   -2.830185115356e-03
   151    3.585478657449e-16
   152    3.371868805527e-16
   153   -5.480683449810e-04
   154    1.000764296899e-16
   155   -5.291049002501e-17
   156    1.023455062819e-16
   157    4.100778870062e-16
   158    2.417938182811e-16
   159   -2.800685315658e-15
   160    6.904565762702e-15
   161   -3.440314324220e-15
   162   -1.510941593142e-15
   163    3.914387060186e-16
   164    7.336634381837e-02
   165   -1.398390642208e-16
   166   -8.942477286928e-16
   167    8.980316322900e-03
   168   -8.462590985425e-18
   169    3.654415894430e-15
   170    1.381055579301e-02
   171    9.601402608951e-15
   172   -1.496514608987e-14
   173   -6.084970779656e-01
   174   -1.989178973662e-15
   175    3.341698541859e-14
   176    7.219266337963e-01
   177    1.035552667802e-15
   178   -2.828577490543e-02
   179    7.386038869049e-15
   180   -1.745077013279e-15
   181   -8.452390417139e-15
   182    2.343573105821e-15
   183   -1.504808008354e-01
   184    4.688244036923e-14
   185    6.633025979989e-16
   186   -3.065924948325e-14
   187    2.830185117145e-03
   188   -9.210570793107e-17
   189    1.121695458280e-17
   190   -5.480683591304e-04
   191    2.888009510628e-16
   192    6.119285585172e-16
   193    2.234829520592e-17
[5D7F]

======= END OF MOLDEN-FORMATTED INPUT FILE =======


        *************************************************************
        *                                                           *
        *  Thank you very much for using Q-Chem.  Have a nice day.  *
        *                                                           *
        *************************************************************


