
                                 *****************
                                 * O   R   C   A *
                                 *****************

                                            #,                                       
                                            ###                                      
                                            ####                                     
                                            #####                                    
                                            ######                                   
                                           ########,                                 
                                     ,,################,,,,,                         
                               ,,#################################,,                 
                          ,,##########################################,,             
                       ,#########################################, ''#####,          
                    ,#############################################,,   '####,        
                  ,##################################################,,,,####,       
                ,###########''''           ''''###############################       
              ,#####''   ,,,,##########,,,,          '''####'''          '####       
            ,##' ,,,,###########################,,,                        '##       
           ' ,,###''''                  '''############,,,                           
         ,,##''                                '''############,,,,        ,,,,,,###''
      ,#''                                            '''#######################'''  
     '                                                          ''''####''''         
             ,#######,   #######,   ,#######,      ##                                
            ,#'     '#,  ##    ##  ,#'     '#,    #''#        ######   ,####,        
            ##       ##  ##   ,#'  ##            #'  '#       #        #'  '#        
            ##       ##  #######   ##           ,######,      #####,   #    #        
            '#,     ,#'  ##    ##  '#,     ,#' ,#      #,         ##   #,  ,#        
             '#######'   ##     ##  '#######'  #'      '#     #####' # '####'        



                  #######################################################
                  #                        -***-                        #
                  #          Department of theory and spectroscopy      #
                  #    Directorship and core code : Frank Neese         #
                  #        Max Planck Institute fuer Kohlenforschung    #
                  #                Kaiser Wilhelm Platz 1               #
                  #                 D-45470 Muelheim/Ruhr               #
                  #                      Germany                        #
                  #                                                     #
                  #                  All rights reserved                #
                  #                        -***-                        #
                  #######################################################


                         Program Version 5.0.3 -  RELEASE  -


 With contributions from (in alphabetic order):
   Daniel Aravena         : Magnetic Suceptibility
   Michael Atanasov       : Ab Initio Ligand Field Theory (pilot matlab implementation)
   Alexander A. Auer      : GIAO ZORA, VPT2 properties, NMR spectrum
   Ute Becker             : Parallelization
   Giovanni Bistoni       : ED, misc. LED, open-shell LED, HFLD
   Martin Brehm           : Molecular dynamics
   Dmytro Bykov           : SCF Hessian
   Vijay G. Chilkuri      : MRCI spin determinant printing, contributions to CSF-ICE
   Dipayan Datta          : RHF DLPNO-CCSD density
   Achintya Kumar Dutta   : EOM-CC, STEOM-CC
   Dmitry Ganyushin       : Spin-Orbit,Spin-Spin,Magnetic field MRCI
   Miquel Garcia          : C-PCM and meta-GGA Hessian, CC/C-PCM, Gaussian charge scheme
   Yang Guo               : DLPNO-NEVPT2, F12-NEVPT2, CIM, IAO-localization
   Andreas Hansen         : Spin unrestricted coupled pair/coupled cluster methods
   Benjamin Helmich-Paris : MC-RPA, TRAH-SCF, COSX integrals
   Lee Huntington         : MR-EOM, pCC
   Robert Izsak           : Overlap fitted RIJCOSX, COSX-SCS-MP3, EOM
   Marcus Kettner         : VPT2
   Christian Kollmar      : KDIIS, OOCD, Brueckner-CCSD(T), CCSD density, CASPT2, CASPT2-K
   Simone Kossmann        : Meta GGA functionals, TD-DFT gradient, OOMP2, MP2 Hessian
   Martin Krupicka        : Initial AUTO-CI
   Lucas Lang             : DCDCAS
   Marvin Lechner         : AUTO-CI (C++ implementation), FIC-MRCC
   Dagmar Lenk            : GEPOL surface, SMD
   Dimitrios Liakos       : Extrapolation schemes; Compound Job, initial MDCI parallelization
   Dimitrios Manganas     : Further ROCIS development; embedding schemes
   Dimitrios Pantazis     : SARC Basis sets
   Anastasios Papadopoulos: AUTO-CI, single reference methods and gradients
   Taras Petrenko         : DFT Hessian,TD-DFT gradient, ASA, ECA, R-Raman, ABS, FL, XAS/XES, NRVS
   Peter Pinski           : DLPNO-MP2, DLPNO-MP2 Gradient
   Christoph Reimann      : Effective Core Potentials
   Marius Retegan         : Local ZFS, SOC
   Christoph Riplinger    : Optimizer, TS searches, QM/MM, DLPNO-CCSD(T), (RO)-DLPNO pert. Triples
   Tobias Risthaus        : Range-separated hybrids, TD-DFT gradient, RPA, STAB
   Michael Roemelt        : Original ROCIS implementation
   Masaaki Saitow         : Open-shell DLPNO-CCSD energy and density
   Barbara Sandhoefer     : DKH picture change effects
   Avijit Sen             : IP-ROCIS
   Kantharuban Sivalingam : CASSCF convergence, NEVPT2, FIC-MRCI
   Bernardo de Souza      : ESD, SOC TD-DFT
   Georgi Stoychev        : AutoAux, RI-MP2 NMR, DLPNO-MP2 response
   Willem Van den Heuvel  : Paramagnetic NMR
   Boris Wezisla          : Elementary symmetry handling
   Frank Wennmohs         : Technical directorship


 We gratefully acknowledge several colleagues who have allowed us to
 interface, adapt or use parts of their codes:
   Stefan Grimme, W. Hujo, H. Kruse, P. Pracht,  : VdW corrections, initial TS optimization,
                  C. Bannwarth, S. Ehlert          DFT functionals, gCP, sTDA/sTD-DF
   Ed Valeev, F. Pavosevic, A. Kumar             : LibInt (2-el integral package), F12 methods
   Garnet Chan, S. Sharma, J. Yang, R. Olivares  : DMRG
   Ulf Ekstrom                                   : XCFun DFT Library
   Mihaly Kallay                                 : mrcc  (arbitrary order and MRCC methods)
   Jiri Pittner, Ondrej Demel                    : Mk-CCSD
   Frank Weinhold                                : gennbo (NPA and NBO analysis)
   Christopher J. Cramer and Donald G. Truhlar   : smd solvation model
   Lars Goerigk                                  : TD-DFT with DH, B97 family of functionals
   V. Asgeirsson, H. Jonsson                     : NEB implementation
   FAccTs GmbH                                   : IRC, NEB, NEB-TS, DLPNO-Multilevel, CI-OPT
                                                   MM, QMMM, 2- and 3-layer-ONIOM, Crystal-QMMM,
                                                   LR-CPCM, SF, NACMEs, symmetry and pop. for TD-DFT,
                                                   nearIR, NL-DFT gradient (VV10), updates on ESD,
                                                   ML-optimized integration grids
   S Lehtola, MJT Oliveira, MAL Marques          : LibXC Library
   Liviu Ungur et al                             : ANISO software


 Your calculation uses the libint2 library for the computation of 2-el integrals
 For citations please refer to: http://libint.valeyev.net

 Your ORCA version has been built with support for libXC version: 5.1.0
 For citations please refer to: https://tddft.org/programs/libxc/

 This ORCA versions uses:
   CBLAS   interface :  Fast vector & matrix operations
   LAPACKE interface :  Fast linear algebra routines
   SCALAPACK package :  Parallel linear algebra routines
   Shared memory     :  Shared parallel matrices
   BLAS/LAPACK       :  OpenBLAS 0.3.15  USE64BITINT DYNAMIC_ARCH NO_AFFINITY Haswell SINGLE_THREADED
        Core in use  :  Haswell
   Copyright (c) 2011-2014, The OpenBLAS Project




***************************************
The coordinates will be read from file: benzophenone.xyz
***************************************


================================================================================

----- Orbital basis set information -----
Your calculation utilizes the basis: def2-TZVP
   F. Weigend and R. Ahlrichs, Phys. Chem. Chem. Phys. 7, 3297 (2005).

----- AuxJ basis set information -----
Your calculation utilizes the auxiliary basis: def2/J
   F. Weigend, Phys. Chem. Chem. Phys. 8, 1057 (2006).

================================================================================
                                        WARNINGS
                       Please study these warnings very carefully!
================================================================================


WARNING: your system is open-shell and RHF/RKS was chosen
  ===> : WILL SWITCH to UHF/UKS


INFO   : the flag for use of the SHARK integral package has been found!

================================================================================
                                       INPUT FILE
================================================================================
NAME = benzophenone_orca_dft.inp
|  1> # List of keywords
|  2> !B3LYP def2-TZVP SOMF(1X) SMALLPRINT #DKH
|  3> 
|  4> %METHOD 			# DFT input block
|  5> END	
|  6> 
|  7> %SCF                            # Control of the SCF procedure
|  8>  maxiter 500                    # max. number of SCF iterations
|  9>  TolE 1e-8                      # energy change between two cycles
| 10>  TolErr 5e-7                    # DIIS error convergence
| 11>  ConvForced 1                   # 0: converg. not mandatory; 1: break if not meet convergence
| 12> END
| 13> 
| 14> %EPRNMR 			# Control of EPR and NMR calculations
| 15>  gtensor 1			# Calculate the g-tensor 
| 16>  maxiter 300			# max. number of iterations
| 17>  Tol 1e-8			# g-tensor convergence
| 18>  ori CenterOfElCharge		# origin for magnetic properties
| 19>  printlevel 2			# detailed information
| 20> END
| 21> 
| 22> * XYZFILE 0 3 benzophenone.xyz 		# Coordinates
| 23> 
| 24> 
| 25>                          ****END OF INPUT****
================================================================================

                       ****************************
                       * Single Point Calculation *
                       ****************************

---------------------------------
CARTESIAN COORDINATES (ANGSTROEM)
---------------------------------
  C      0.000000    0.000000    1.714025
  O      0.000000    0.000000    4.215070
  C     -0.027187    2.451588    0.537827
  C      0.027187   -2.451588    0.537827
  C      1.081186   -2.845633   -1.893942
  C     -0.878343   -4.594923    1.878833
  C     -0.809803   -6.972917    0.792781
  C      1.109835   -5.228915   -2.958477
  C      0.165679   -7.316182   -1.632619
  H      1.901175   -1.269606   -2.905429
  H     -1.676473   -4.335239    3.742081
  H      1.906551   -5.486367   -4.827499
  H     -1.540027   -8.577009    1.835607
  H      0.210248   -9.179345   -2.477152
  C     -1.081186    2.845633   -1.893942
  C      0.878343    4.594923    1.878833
  C     -1.109835    5.228915   -2.958477
  C      0.809803    6.972917    0.792781
  C     -0.165679    7.316182   -1.632619
  H     -1.901175    1.269606   -2.905429
  H     -1.906551    5.486367   -4.827499
  H      1.676473    4.335239    3.742081
  H      1.540027    8.577009    1.835607
  H     -0.210248    9.179345   -2.477152

----------------------------
CARTESIAN COORDINATES (A.U.)
----------------------------
  NO LB      ZA    FRAG     MASS         X           Y           Z
   0 C     6.0000    0    12.011    0.000000    0.000000    3.239037
   1 O     8.0000    0    15.999    0.000000    0.000000    7.965328
   2 C     6.0000    0    12.011   -0.051376    4.632830    1.016346
   3 C     6.0000    0    12.011    0.051376   -4.632830    1.016346
   4 C     6.0000    0    12.011    2.043146   -5.377466   -3.579032
   5 C     6.0000    0    12.011   -1.659827   -8.683146    3.550480
   6 C     6.0000    0    12.011   -1.530305  -13.176904    1.498139
   7 C     6.0000    0    12.011    2.097285   -9.881218   -5.590711
   8 C     6.0000    0    12.011    0.313087  -13.825579   -3.085203
   9 H     1.0000    0     1.008    3.592700   -2.399208   -5.490465
  10 H     1.0000    0     1.008   -3.168075   -8.192414    7.071509
  11 H     1.0000    0     1.008    3.602859  -10.367732   -9.122651
  12 H     1.0000    0     1.008   -2.910228  -16.208199    3.468794
  13 H     1.0000    0     1.008    0.397312  -17.346448   -4.681138
  14 C     6.0000    0    12.011   -2.043146    5.377466   -3.579032
  15 C     6.0000    0    12.011    1.659827    8.683146    3.550480
  16 C     6.0000    0    12.011   -2.097285    9.881218   -5.590711
  17 C     6.0000    0    12.011    1.530305   13.176904    1.498139
  18 C     6.0000    0    12.011   -0.313087   13.825579   -3.085203
  19 H     1.0000    0     1.008   -3.592700    2.399208   -5.490465
  20 H     1.0000    0     1.008   -3.602859   10.367732   -9.122651
  21 H     1.0000    0     1.008    3.168075    8.192414    7.071509
  22 H     1.0000    0     1.008    2.910228   16.208199    3.468794
  23 H     1.0000    0     1.008   -0.397312   17.346448   -4.681138

--------------------------------
INTERNAL COORDINATES (ANGSTROEM)
--------------------------------
 C      0   0   0     0.000000000000     0.00000000     0.00000000
 O      1   0   0     2.501045301563     0.00000000     0.00000000
 C      1   2   0     2.719276090899   115.62890517     0.00000000
 C      1   2   3     2.719276090899   115.62890517   180.00000000
 C      4   1   2     2.679493995128   121.94242710   207.49026176
 C      4   1   2     2.685547435696   120.01173597    23.55264507
 C      6   4   1     2.615160618040   120.63131532   181.48948121
 C      5   4   1     2.610381484173   120.57648165   179.11258539
 C      7   6   4     2.636656499885   120.67018280     0.45329551
 H      5   4   1     2.044345070551   119.56662830     0.29202675
 H      6   4   1     2.043561370625   119.04887362     3.33992027
 H      8   5   4     2.047994238346   119.42031393   179.36167526
 H      7   6   4     2.047882801850   119.43504307   181.06079856
 H      9   7   6     2.046118222627   120.41670487   180.18937963
 C      3   1   2     2.679493995128   121.94242710   207.49026176
 C      3   1   2     2.685547435696   120.01173597    23.55264507
 C     15   3   1     2.610381484173   120.57648165   179.11258539
 C     16   3   1     2.615160618040   120.63131532   181.48948121
 C     18  16   3     2.636656499885   120.67018280     0.45329551
 H     15   3   1     2.044345070551   119.56662830     0.29202675
 H     17  15   3     2.047994238346   119.42031393   179.36167526
 H     16   3   1     2.043561370625   119.04887362     3.33992027
 H     18  16   3     2.047882801850   119.43504307   181.06079856
 H     19  18  16     2.046118222627   120.41670487   180.18937963

---------------------------
INTERNAL COORDINATES (A.U.)
---------------------------
 C      0   0   0     0.000000000000     0.00000000     0.00000000
 O      1   0   0     4.726290668485     0.00000000     0.00000000
 C      1   2   0     5.138687094318   115.62890517     0.00000000
 C      1   2   3     5.138687094318   115.62890517   180.00000000
 C      4   1   2     5.063509828278   121.94242710   207.49026176
 C      4   1   2     5.074949173120   120.01173597    23.55264507
 C      6   4   1     4.941937364312   120.63131532   181.48948121
 C      5   4   1     4.932906110146   120.57648165   179.11258539
 C      7   6   4     4.982558694005   120.67018280     0.45329551
 H      5   4   1     3.863252306573   119.56662830     0.29202675
 H      6   4   1     3.861771328342   119.04887362     3.33992027
 H      8   5   4     3.870148234322   119.42031393   179.36167526
 H      7   6   4     3.869937649864   119.43504307   181.06079856
 H      9   7   6     3.866603078391   120.41670487   180.18937963
 C      3   1   2     5.063509828278   121.94242710   207.49026176
 C      3   1   2     5.074949173120   120.01173597    23.55264507
 C     15   3   1     4.932906110146   120.57648165   179.11258539
 C     16   3   1     4.941937364312   120.63131532   181.48948121
 C     18  16   3     4.982558694005   120.67018280     0.45329551
 H     15   3   1     3.863252306573   119.56662830     0.29202675
 H     17  15   3     3.870148234322   119.42031393   179.36167526
 H     16   3   1     3.861771328342   119.04887362     3.33992027
 H     18  16   3     3.869937649864   119.43504307   181.06079856
 H     19  18  16     3.866603078391   120.41670487   180.18937963

---------------------
BASIS SET INFORMATION
---------------------
There are 3 groups of distinct atoms

 Group   1 Type C   : 11s6p2d1f contracted to 5s3p2d1f pattern {62111/411/11/1}
 Group   2 Type O   : 11s6p2d1f contracted to 5s3p2d1f pattern {62111/411/11/1}
 Group   3 Type H   : 5s1p contracted to 3s1p pattern {311/1}

Atom   0C    basis set group =>   1
Atom   1O    basis set group =>   2
Atom   2C    basis set group =>   1
Atom   3C    basis set group =>   1
Atom   4C    basis set group =>   1
Atom   5C    basis set group =>   1
Atom   6C    basis set group =>   1
Atom   7C    basis set group =>   1
Atom   8C    basis set group =>   1
Atom   9H    basis set group =>   3
Atom  10H    basis set group =>   3
Atom  11H    basis set group =>   3
Atom  12H    basis set group =>   3
Atom  13H    basis set group =>   3
Atom  14C    basis set group =>   1
Atom  15C    basis set group =>   1
Atom  16C    basis set group =>   1
Atom  17C    basis set group =>   1
Atom  18C    basis set group =>   1
Atom  19H    basis set group =>   3
Atom  20H    basis set group =>   3
Atom  21H    basis set group =>   3
Atom  22H    basis set group =>   3
Atom  23H    basis set group =>   3
---------------------------------
AUXILIARY/J BASIS SET INFORMATION
---------------------------------
There are 3 groups of distinct atoms

 Group   1 Type C   : 12s5p4d2f1g contracted to 6s4p3d1f1g pattern {711111/2111/211/2/1}
 Group   2 Type O   : 12s5p4d2f1g contracted to 6s4p3d1f1g pattern {711111/2111/211/2/1}
 Group   3 Type H   : 5s2p1d contracted to 3s1p1d pattern {311/2/1}

Atom   0C    basis set group =>   1
Atom   1O    basis set group =>   2
Atom   2C    basis set group =>   1
Atom   3C    basis set group =>   1
Atom   4C    basis set group =>   1
Atom   5C    basis set group =>   1
Atom   6C    basis set group =>   1
Atom   7C    basis set group =>   1
Atom   8C    basis set group =>   1
Atom   9H    basis set group =>   3
Atom  10H    basis set group =>   3
Atom  11H    basis set group =>   3
Atom  12H    basis set group =>   3
Atom  13H    basis set group =>   3
Atom  14C    basis set group =>   1
Atom  15C    basis set group =>   1
Atom  16C    basis set group =>   1
Atom  17C    basis set group =>   1
Atom  18C    basis set group =>   1
Atom  19H    basis set group =>   3
Atom  20H    basis set group =>   3
Atom  21H    basis set group =>   3
Atom  22H    basis set group =>   3
Atom  23H    basis set group =>   3
------------------------------------------------------------------------------
                           ORCA GTO INTEGRAL CALCULATION
                           -- RI-GTO INTEGRALS CHOSEN --
------------------------------------------------------------------------------
------------------------------------------------------------------------------
                   ___                                                        
                  /   \      - P O W E R E D   B Y -                         
                 /     \                                                     
                 |  |  |   _    _      __       _____    __    __             
                 |  |  |  | |  | |    /  \     |  _  \  |  |  /  |          
                  \  \/   | |  | |   /    \    | | | |  |  | /  /          
                 / \  \   | |__| |  /  /\  \   | |_| |  |  |/  /          
                |  |  |   |  __  | /  /__\  \  |    /   |      \           
                |  |  |   | |  | | |   __   |  |    \   |  |\   \          
                \     /   | |  | | |  |  |  |  | |\  \  |  | \   \       
                 \___/    |_|  |_| |__|  |__|  |_| \__\ |__|  \__/        
                                                                              
                      - O R C A' S   B I G   F R I E N D -                    
                                      &                                       
                       - I N T E G R A L  F E E D E R -                       
                                                                              
 v1 FN, 2020, v2 2021                                                         
------------------------------------------------------------------------------


Reading SHARK input file benzophenone_orca_dft.SHARKINP.tmp ... ok
----------------------
SHARK INTEGRAL PACKAGE
----------------------

Number of atoms                             ...     24
Number of basis functions                   ...    494
Number of shells                            ...    194
Maximum angular momentum                    ...      3
Integral batch strategy                     ... SHARK/LIBINT Hybrid
RI-J (if used) integral strategy            ... SPLIT-RIJ (Revised 2003 algorithm where possible)
Printlevel                                  ...      1
Contraction scheme used                     ... SEGMENTED contraction
Coulomb Range Separation                    ... NOT USED
Exchange Range Separation                   ... NOT USED
Finite Nucleus Model                        ... NOT USED
Auxiliary Coulomb fitting basis             ... AVAILABLE
   # of basis functions in Aux-J            ...    796
   # of shells in Aux-J                     ...    260
   Maximum angular momentum in Aux-J        ...      4
Auxiliary J/K fitting basis                 ... NOT available
Auxiliary Correlation fitting basis         ... NOT available
Auxiliary 'external' fitting basis          ... NOT available
Integral threshold                          ...     1.000000e-10
Primitive cut-off                           ...     1.000000e-11
Primitive pair pre-selection threshold      ...     1.000000e-11

Calculating pre-screening integrals         ... done (  0.2 sec) Dimension = 194
Organizing shell pair data                  ... done (  0.1 sec)
Shell pair information
Total number of shell pairs                 ...     18915
Shell pairs after pre-screening             ...      8844
Total number of primitive shell pairs       ...     58308
Primitive shell pairs kept                  ...     18031
          la=0 lb=0:   2241 shell pairs
          la=1 lb=0:   2571 shell pairs
          la=1 lb=1:    761 shell pairs
          la=2 lb=0:   1237 shell pairs
          la=2 lb=1:    730 shell pairs
          la=2 lb=2:    190 shell pairs
          la=3 lb=0:    568 shell pairs
          la=3 lb=1:    352 shell pairs
          la=3 lb=2:    146 shell pairs
          la=3 lb=3:     48 shell pairs

Calculating one electron integrals          ... done (  0.1 sec)
Calculating RI/J V-Matrix + Cholesky decomp.... done (  0.0 sec)
Calculating Nuclear repulsion               ... done (  0.0 sec) ENN=    408.752718309778 Eh

SHARK setup successfully completed in   1.6 seconds

Maximum memory used throughout the entire GTOINT-calculation: 116.0 MB
-------------------------------------------------------------------------------
                                 ORCA SCF
-------------------------------------------------------------------------------

------------
SCF SETTINGS
------------
Hamiltonian:
 Density Functional     Method          .... DFT(GTOs)
 Exchange Functional    Exchange        .... B88
   X-Alpha parameter    XAlpha          ....  0.666667
   Becke's b parameter  XBeta           ....  0.004200
 Correlation Functional Correlation     .... LYP
 LDA part of GGA corr.  LDAOpt          .... VWN-5
 Gradients option       PostSCFGGA      .... off
 Hybrid DFT is turned on
   Fraction HF Exchange ScalHFX         ....  0.200000
   Scaling of DF-GGA-X  ScalDFX         ....  0.720000
   Scaling of DF-GGA-C  ScalDFC         ....  0.810000
   Scaling of DF-LDA-C  ScalLDAC        ....  1.000000
   Perturbative correction              ....  0.000000
   Density functional embedding theory  .... OFF
   NL short-range parameter             ....  4.800000
 RI-approximation to the Coulomb term is turned on
   Number of AuxJ basis functions       .... 796
   RIJ-COSX (HFX calculated with COS-X)).... on


General Settings:
 Integral files         IntName         .... benzophenone_orca_dft
 Hartree-Fock type      HFTyp           .... UHF
 Total Charge           Charge          ....    0
 Multiplicity           Mult            ....    3
 Number of Electrons    NEL             ....   96
 Basis Dimension        Dim             ....  494
 Nuclear Repulsion      ENuc            ....    408.7527183098 Eh

Convergence Acceleration:
 DIIS                   CNVDIIS         .... on
   Start iteration      DIISMaxIt       ....    12
   Startup error        DIISStart       ....  0.200000
   # of expansion vecs  DIISMaxEq       ....     5
   Bias factor          DIISBfac        ....   1.050
   Max. coefficient     DIISMaxC        ....  10.000
 Trust-Rad. Augm. Hess. CNVTRAH         .... auto
   Auto Start mean grad. ratio tolernc. ....  1.125000
   Auto Start start iteration           ....    20
   Auto Start num. interpolation iter.  ....    10
   Max. Number of Micro iterations      ....    16
   Max. Number of Macro iterations      .... Maxiter - #DIIS iter
   Number of Davidson start vectors     ....     2
   Converg. threshold I  (grad. norm)   ....   5.000e-05
   Converg. threshold II (energy diff.) ....   1.000e-08
   Grad. Scal. Fac. for Micro threshold ....   0.100
   Minimum threshold for Micro iter.    ....   0.010
   NR start threshold (gradient norm)   ....   0.001
   Initial trust radius                 ....   0.400
   Minimum AH scaling param. (alpha)    ....   1.000
   Maximum AH scaling param. (alpha)    .... 1000.000
   Orbital update algorithm             .... Taylor
   White noise on init. David. guess    .... on
   Maximum white noise                  ....   0.010
   Quad. conv. algorithm                .... NR
 SOSCF                  CNVSOSCF        .... off
 Level Shifting         CNVShift        .... on
   Level shift para.    LevelShift      ....    0.2500
   Turn off err/grad.   ShiftErr        ....    0.0010
 Zerner damping         CNVZerner       .... off
 Static damping         CNVDamp         .... on
   Fraction old density DampFac         ....    0.7000
   Max. Damping (<1)    DampMax         ....    0.9800
   Min. Damping (>=0)   DampMin         ....    0.0000
   Turn off err/grad.   DampErr         ....    0.1000
 Fernandez-Rico         CNVRico         .... off

SCF Procedure:
 Maximum # iterations   MaxIter         ....   500
 SCF integral mode      SCFMode         .... Direct
   Integral package                     .... SHARK and LIBINT hybrid scheme
 Reset frequency        DirectResetFreq ....    20
 Integral Threshold     Thresh          ....  1.000e-10 Eh
 Primitive CutOff       TCut            ....  1.000e-11 Eh

Convergence Tolerance:
 Convergence Check Mode ConvCheckMode   .... Total+1el-Energy
 Convergence forced     ConvForced      .... 1
 Energy Change          TolE            ....  1.000e-08 Eh
 1-El. energy change                    ....  1.000e-05 Eh
 DIIS Error             TolErr          ....  5.000e-07


Diagonalization of the overlap matrix:
Smallest eigenvalue                        ... 4.946e-03
Time for diagonalization                   ...    0.052 sec
Threshold for overlap eigenvalues          ... 1.000e-08
Number of eigenvalues below threshold      ... 0
Time for construction of square roots      ...    0.018 sec
Total time needed                          ...    0.071 sec

Time for model grid setup =    0.636 sec

------------------------------
INITIAL GUESS: MODEL POTENTIAL
------------------------------
Loading Hartree-Fock densities                     ... done
Calculating cut-offs                               ... done
Initializing the effective Hamiltonian             ... done
Setting up the integral package (SHARK)            ... done
Starting the Coulomb interaction                   ... done (   0.8 sec)
Reading the grid                                   ... done
Mapping shells                                     ... done
Starting the XC term evaluation                    ... done (   0.4 sec)
  promolecular density results
     # of electrons  =     95.995767614
     EX              =    -75.264379783
     EC              =     -2.835643577
     EX+EC           =    -78.100023360
Transforming the Hamiltonian                       ... done (   0.0 sec)
Diagonalizing the Hamiltonian                      ... done (   0.0 sec)
Back transforming the eigenvectors                 ... done (   0.0 sec)
Now organizing SCF variables                       ... done
                      ------------------
                      INITIAL GUESS DONE (   1.9 sec)
                      ------------------
-------------------
DFT GRID GENERATION
-------------------

General Integration Accuracy     IntAcc      ... 4.388
Radial Grid Type                 RadialGrid  ... OptM3 with GC (2021)
Angular Grid (max. ang.)         AngularGrid ... 4 (Lebedev-302)
Angular grid pruning method      GridPruning ... 4 (adaptive)
Weight generation scheme         WeightScheme... Becke
Basis function cutoff            BFCut       ... 1.0000e-10
Integration weight cutoff        WCut        ... 1.0000e-14
Angular grids for H and He will be reduced by one unit
Partially contracted basis set               ... off
Rotationally invariant grid construction     ... off

Total number of grid points                  ...   119001
Total number of batches                      ...     1876
Average number of points per batch           ...       63
Average number of grid points per atom       ...     4958
Time for grid setup =    1.749 sec

--------------------
COSX GRID GENERATION
--------------------

GRIDX 1
-------
General Integration Accuracy     IntAcc      ... 3.816
Radial Grid Type                 RadialGrid  ... OptM3 with GC (2021)
Angular Grid (max. ang.)         AngularGrid ... 1 (Lebedev-50)
Angular grid pruning method      GridPruning ... 4 (adaptive)
Weight generation scheme         WeightScheme... Becke
Basis function cutoff            BFCut       ... 1.0000e-10
Integration weight cutoff        WCut        ... 1.0000e-14
Angular grids for H and He will be reduced by one unit
Partially contracted basis set               ... on
Rotationally invariant grid construction     ... off

Total number of grid points                  ...    15237
Total number of batches                      ...      251
Average number of points per batch           ...       60
Average number of grid points per atom       ...      635
UseSFitting                                  ... on

GRIDX 2
-------
General Integration Accuracy     IntAcc      ... 4.020
Radial Grid Type                 RadialGrid  ... OptM3 with GC (2021)
Angular Grid (max. ang.)         AngularGrid ... 2 (Lebedev-110)
Angular grid pruning method      GridPruning ... 4 (adaptive)
Weight generation scheme         WeightScheme... Becke
Basis function cutoff            BFCut       ... 1.0000e-10
Integration weight cutoff        WCut        ... 1.0000e-14
Angular grids for H and He will be reduced by one unit
Partially contracted basis set               ... on
Rotationally invariant grid construction     ... off

Total number of grid points                  ...    33972
Total number of batches                      ...      545
Average number of points per batch           ...       62
Average number of grid points per atom       ...     1416
UseSFitting                                  ... on

GRIDX 3
-------
General Integration Accuracy     IntAcc      ... 4.338
Radial Grid Type                 RadialGrid  ... OptM3 with GC (2021)
Angular Grid (max. ang.)         AngularGrid ... 3 (Lebedev-194)
Angular grid pruning method      GridPruning ... 4 (adaptive)
Weight generation scheme         WeightScheme... Becke
Basis function cutoff            BFCut       ... 1.0000e-10
Integration weight cutoff        WCut        ... 1.0000e-14
Angular grids for H and He will be reduced by one unit
Partially contracted basis set               ... on
Rotationally invariant grid construction     ... off

Total number of grid points                  ...    74965
Total number of batches                      ...     1184
Average number of points per batch           ...       63
Average number of grid points per atom       ...     3124
UseSFitting                                  ... on

Time for X-Grid setup             =    2.424 sec

--------------
SCF ITERATIONS
--------------
ITER       Energy         Delta-E        Max-DP      RMS-DP      [F,P]     Damp
               ***  Starting incremental Fock matrix formation  ***
  0   -570.8255887332   0.000000000000 0.07920206  0.00081370  0.3527420 0.7000
  1   -571.3418445513  -0.516255818107 0.04080558  0.00045846  0.0596962 0.7000
                               ***Turning on DIIS***
  2   -571.5819838386  -0.240139287234 0.06036964  0.00080359  0.0867026 0.0000
  3   -571.4023426609   0.179641177698 0.01185617  0.00012970  0.2189960 0.7000
  4   -571.4724814984  -0.070138837518 0.01114378  0.00015714  0.2102735 0.7000
  5   -571.5322258832  -0.059744384799 0.00767590  0.00014286  0.1953983 0.7000
  6   -571.5749134745  -0.042687591302 0.00634398  0.00012252  0.1867697 0.7000
  7   -571.6092792711  -0.034365796609 0.06518480  0.00059874  0.2010720 0.7000
  8   -571.8853245826  -0.276045311488 0.04559119  0.00039366  0.1146012 0.7000
  9   -571.1793447065   0.705979876079 0.03181713  0.00027931  0.2232002 0.7000
 10   -570.3882459218   0.791098784710 0.02198804  0.00020733  0.3507803 0.7000
 11   -569.8227206110   0.565525310766 0.01486933  0.00016741  0.4699074 0.7000
 12   -569.5220947869   0.300625824145 0.01531434  0.00015182  0.5662650 0.7000
 13   -569.2521031847   0.269991602241 0.09254269  0.00051599  0.6420017 0.7000
 14   -571.0047796508  -1.752676466185 0.06314409  0.00041314  0.3177480 0.7000
 15   -571.6969403666  -0.692160715763 0.10464352  0.00102864  0.0930203 0.0000
 16   -570.7313600681   0.965580298469 0.01335672  0.00013790  0.4292109 0.7000
 17   -570.8818352800  -0.150475211828 0.01873331  0.00019285  0.3944656 0.7000
 18   -571.0476359801  -0.165800700105 0.01691284  0.00016075  0.3441487 0.7000
 19   -571.1776549135  -0.130018933399 0.01190741  0.00011556  0.2986855 0.7000
               *** Restarting incremental Fock matrix formation ***
                                   *** Resetting DIIS ***

 WARNING: the maximum gradient error descreased on average only by a factor   1.1
          during the last 20 iterations

                      *** Initiating the TRAH-SCF procedure ***


TRAH GRIDX
----------

General Integration Accuracy     IntAcc      ... 3.067
Radial Grid Type                 RadialGrid  ... OptM3 with GC (2021)
Angular Grid (max. ang.)         AngularGrid ... 1 (Lebedev-50)
Angular grid pruning method      GridPruning ... 4 (adaptive)
Weight generation scheme         WeightScheme... Becke
Basis function cutoff            BFCut       ... 1.0000e-10
Integration weight cutoff        WCut        ... 1.0000e-14
Angular grids for H and He will be reduced by one unit
Partially contracted basis set               ... on
Rotationally invariant grid construction     ... off

Total number of grid points                  ...     8048
Total number of batches                      ...      138
Average number of points per batch           ...       58
Average number of grid points per atom       ...      335


TRAH GRID
---------

General Integration Accuracy     IntAcc      ... 3.467
Radial Grid Type                 RadialGrid  ... OptM3 with GC (2021)
Angular Grid (max. ang.)         AngularGrid ... 1 (Lebedev-50)
Angular grid pruning method      GridPruning ... 4 (adaptive)
Weight generation scheme         WeightScheme... Becke
Basis function cutoff            BFCut       ... 1.0000e-10
Integration weight cutoff        WCut        ... 1.0000e-14
Angular grids for H and He will be reduced by one unit
Partially contracted basis set               ... off
Rotationally invariant grid construction     ... off

Total number of grid points                  ...    17700
Total number of batches                      ...      290
Average number of points per batch           ...       61
Average number of grid points per atom       ...      738

 --------------------------------------------------------------------------------------------
   Iter.        energy            ||Error||_2        Shift      TRadius  Mac/Mic        Rej.
 --------------------------------------------------------------------------------------------
WARNING: 666 diagonal Hessian elements are negative!
    0       -571.434276133623     9.289706e-01                     0.400 (TRAH MAcro)   No
WARNING : negative HOMO - LUMO gap : (op = alpha) -0.709378
WARNING : negative HOMO - LUMO gap : (op =  beta) -0.721048
    0     dE    -4.116989e-01     9.769109e-01    -3.5837e-01      0.386 (TRAH MIcro)
    0     dE    -5.136718e-01     2.699864e-01    -1.2703e+00      0.385 (TRAH MIcro)
    0     dE    -5.494827e-01     5.187464e-02    -1.3814e+00      0.400 (TRAH MIcro)
    0     dE    -5.508229e-01     9.799663e-03    -1.3983e+00      0.400 (TRAH MIcro)
WARNING: 270 diagonal Hessian elements are negative!
    1       -571.950613520621     4.400400e-01                     0.480 (TRAH MAcro)   No
WARNING : negative HOMO - LUMO gap : (op = alpha) -0.303727
WARNING : negative HOMO - LUMO gap : (op =  beta) -0.300269
    1     dE    -1.506493e-01     2.874112e-01    -1.3729e-01      0.312 (TRAH MIcro)
    1     dE    -2.103015e-01     1.668685e-01    -1.7498e-01      0.449 (TRAH MIcro)
    1     dE    -2.370966e-01     8.317182e-02    -2.5876e-01      0.480 (TRAH MIcro)
    1     dE    -2.429916e-01     5.406094e-02    -2.9948e-01      0.480 (TRAH MIcro)
    1     dE    -2.466128e-01     4.303296e-02    -3.2935e-01      0.480 (TRAH MIcro)
    1     dE    -2.465904e-01     3.675541e-02    -3.6525e-01      0.473 (TRAH MIcro)
    1     dE    -2.507734e-01     2.197804e-02    -3.8011e-01      0.480 (TRAH MIcro)
    1     dE    -2.513016e-01     1.024830e-02    -3.8863e-01      0.480 (TRAH MIcro)
    1     dE    -2.514066e-01     6.982495e-03    -3.9082e-01      0.480 (TRAH MIcro)
WARNING: 1 diagonal Hessian elements are negative!
    2       -572.157575932197     1.227522e-01                     0.576 (TRAH MAcro)   No
WARNING : negative HOMO - LUMO gap : (op = alpha) -0.000117
WARNING : small    HOMO - LUMO gap : (op =  beta) 0.006855
    2     dE    -9.377289e-03     1.885558e-01    -9.3235e-03      0.076 (TRAH MIcro)
    2     dE    -1.773932e-02     1.696380e-01    -1.7129e-02      0.189 (TRAH MIcro)
    2     dE    -3.533059e-02     6.958833e-02    -2.9309e-02      0.453 (TRAH MIcro)
    2     dE    -4.877364e-02     5.593946e-02    -5.0348e-02      0.576 (TRAH MIcro)
    2     dE    -5.171605e-02     4.145029e-02    -6.2365e-02      0.576 (TRAH MIcro)
    2     dE    -5.534523e-02     3.737496e-02    -7.5834e-02      0.576 (TRAH MIcro)
    2     dE    -5.697065e-02     3.221348e-02    -8.1670e-02      0.576 (TRAH MIcro)
    2     dE    -5.819071e-02     2.252418e-02    -8.5366e-02      0.576 (TRAH MIcro)
    2     dE    -4.992987e-02     2.492465e-02    -1.0256e-01      0.480 (TRAH MIcro)
    2     dE    -5.278321e-02     1.862712e-02    -1.0368e-01      0.503 (TRAH MIcro)
    2     dE    -5.681081e-02     1.711926e-02    -1.0483e-01      0.535 (TRAH MIcro)
    2     dE    -6.197911e-02     1.492268e-02    -1.0580e-01      0.576 (TRAH MIcro)
    2     dE    -6.226969e-02     1.141918e-02    -1.0854e-01      0.576 (TRAH MIcro)
    2     dE    -6.232890e-02     7.066487e-03    -1.0895e-01      0.576 (TRAH MIcro)
    3       -572.215740730693     7.593793e-02                     0.691 (TRAH MAcro)   No
    3     dE    -3.910864e-03     1.113404e-01    -3.9006e-03      0.051 (TRAH MIcro)
    3     dE    -3.269539e-02     2.859435e-01    -2.5641e-02      0.525 (TRAH MIcro)
    3     dE    -6.919882e-02     1.681208e-01    -7.5712e-02      0.691 (TRAH MIcro)
    3     dE    -7.860580e-02     4.464145e-02    -9.3282e-02      0.691 (TRAH MIcro)
    3     dE    -8.347147e-02     3.226340e-02    -1.0141e-01      0.691 (TRAH MIcro)
    3     dE    -8.439774e-02     1.541489e-02    -1.0334e-01      0.691 (TRAH MIcro)
    3     dE    -8.469882e-02     1.327965e-02    -1.0370e-01      0.691 (TRAH MIcro)
    3     dE    -8.494334e-02     9.231459e-03    -1.0398e-01      0.691 (TRAH MIcro)
    3     dE    -8.504602e-02     5.911857e-03    -1.0415e-01      0.691 (TRAH MIcro)
    4       -572.283932979683     5.287039e-02                     0.829 (TRAH MAcro)   No
    4     dE    -2.501525e-03     1.710956e-01    -2.4960e-03      0.047 (TRAH MIcro)
    4     dE    -4.214766e-02     1.973641e-01    -2.7747e-02      0.720 (TRAH MIcro)
    4     dE    -6.014093e-02     8.509136e-02    -4.0941e-02      0.829 (TRAH MIcro)
    4     dE    -6.453160e-02     6.828979e-02    -4.7278e-02      0.829 (TRAH MIcro)
    4     dE    -6.886767e-02     5.720734e-02    -5.4599e-02      0.829 (TRAH MIcro)
    4     dE    -7.128091e-02     3.213292e-02    -5.9088e-02      0.829 (TRAH MIcro)
    4     dE    -7.193183e-02     1.917667e-02    -5.9961e-02      0.829 (TRAH MIcro)
    4     dE    -7.238658e-02     1.390414e-02    -6.0572e-02      0.829 (TRAH MIcro)
    4     dE    -7.258902e-02     9.450460e-03    -6.1023e-02      0.829 (TRAH MIcro)
    4     dE    -7.265238e-02     6.654147e-03    -6.1086e-02      0.829 (TRAH MIcro)
    4     dE    -7.270438e-02     4.855940e-03    -6.1165e-02      0.829 (TRAH MIcro)
    5       -572.349027608851     4.092424e-02                     0.995 (TRAH MAcro)   No
    5     dE    -4.527663e-03     2.680893e-01    -4.4742e-03      0.109 (TRAH MIcro)
    5     dE    -3.809932e-02     3.444930e-01    -2.4928e-02      0.727 (TRAH MIcro)
    5     dE    -7.103367e-02     1.106230e-01    -3.6939e-02      0.995 (TRAH MIcro)
    5     dE    -7.620889e-02     5.387240e-02    -4.2067e-02      0.995 (TRAH MIcro)
    5     dE    -8.073386e-02     4.157985e-02    -4.6987e-02      0.995 (TRAH MIcro)
    5     dE    -8.217451e-02     1.937642e-02    -4.8801e-02      0.995 (TRAH MIcro)
    5     dE    -8.249357e-02     1.607370e-02    -4.9184e-02      0.995 (TRAH MIcro)
    5     dE    -8.285810e-02     1.186083e-02    -4.9740e-02      0.995 (TRAH MIcro)
    5     dE    -8.299690e-02     8.135785e-03    -4.9950e-02      0.995 (TRAH MIcro)
    5     dE    -8.306770e-02     5.569729e-03    -5.0066e-02      0.995 (TRAH MIcro)
    5     dE    -8.311003e-02     4.608147e-03    -5.0149e-02      0.995 (TRAH MIcro)
    5     dE    -8.313379e-02     4.008331e-03    -5.0176e-02      0.995 (TRAH MIcro)
    6       -572.413436630283     3.838097e-02                     1.194 (TRAH MAcro)   No
    6     dE    -1.178005e-03     1.042393e-01    -1.1769e-03      0.031 (TRAH MIcro)
    6     dE    -1.232171e-02     5.414746e-02    -1.0622e-02      0.400 (TRAH MIcro)
    6     dE    -1.504683e-02     2.837765e-02    -1.2298e-02      0.473 (TRAH MIcro)
    6     dE    -1.793614e-02     3.429515e-02    -1.3802e-02      0.547 (TRAH MIcro)
    6     dE    -2.174193e-02     2.823752e-02    -1.5372e-02      0.644 (TRAH MIcro)
    6     dE    -2.581375e-02     3.097290e-02    -1.6580e-02      0.746 (TRAH MIcro)
    6     dE    -3.625287e-02     4.662846e-02    -1.8492e-02      0.980 (TRAH MIcro)
    6     dE    -4.970892e-02     4.493609e-02    -2.1237e-02      1.194 (TRAH MIcro)
    6     dE    -5.295234e-02     6.404234e-02    -2.4204e-02      1.194 (TRAH MIcro)
    6     dE    -5.455112e-02     3.372483e-02    -2.6838e-02      1.177 (TRAH MIcro)
    6     dE    -5.665587e-02     3.735906e-02    -2.7696e-02      1.194 (TRAH MIcro)
    6     dE    -5.737455e-02     1.562184e-02    -2.8283e-02      1.194 (TRAH MIcro)
    6     dE    -5.766439e-02     1.138359e-02    -2.8520e-02      1.194 (TRAH MIcro)
    6     dE    -5.781174e-02     7.056074e-03    -2.8641e-02      1.194 (TRAH MIcro)
 ---------------------------------
          TRAH Step control 
 ---------------------------------
  predicted energy change = -0.057812
  actual energy  change   = 0.006541
  energy change ratio     = -0.113138
  old trust radius        = 1.194394
  new trust radius        = 0.836076
  reject step?            =  1
    7       -572.413436630283     4.092424e-02                     0.836 (TRAH MAcro)  Yes
    8       -572.413436630283     3.838097e-02                     0.836 (TRAH MAcro)   No
    8     dE    -1.177989e-03     1.042397e-01    -1.1769e-03      0.031 (TRAH MIcro)
    8     dE    -1.232138e-02     5.414829e-02    -1.0622e-02      0.400 (TRAH MIcro)
    8     dE    -1.504673e-02     2.837685e-02    -1.2298e-02      0.473 (TRAH MIcro)
    8     dE    -1.793583e-02     3.429404e-02    -1.3802e-02      0.547 (TRAH MIcro)
    8     dE    -2.174185e-02     2.823815e-02    -1.5372e-02      0.644 (TRAH MIcro)
    8     dE    -2.581385e-02     3.097171e-02    -1.6580e-02      0.746 (TRAH MIcro)
    8     dE    -3.112971e-02     3.749324e-02    -2.0911e-02      0.836 (TRAH MIcro)
    8     dE    -3.314245e-02     2.684512e-02    -2.5292e-02      0.836 (TRAH MIcro)
    8     dE    -3.435539e-02     3.995919e-02    -2.7830e-02      0.836 (TRAH MIcro)
    8     dE    -3.305608e-02     1.936840e-02    -3.0778e-02      0.789 (TRAH MIcro)
    8     dE    -3.502828e-02     2.084669e-02    -3.1079e-02      0.822 (TRAH MIcro)
    8     dE    -3.600792e-02     8.868629e-03    -3.1303e-02      0.836 (TRAH MIcro)
    8     dE    -3.609960e-02     6.411456e-03    -3.1467e-02      0.836 (TRAH MIcro)
    8     dE    -3.614516e-02     3.871281e-03    -3.1549e-02      0.836 (TRAH MIcro)
    9       -572.433349996513     3.390856e-02                     0.836 (TRAH MAcro)   No
    9     dE    -7.714194e-04     6.657437e-02    -7.7102e-04      0.023 (TRAH MIcro)
    9     dE    -3.701038e-03     2.538075e-02    -3.5970e-03      0.170 (TRAH MIcro)
    9     dE    -4.266350e-03     2.326035e-02    -4.0969e-03      0.203 (TRAH MIcro)
    9     dE    -4.968116e-03     1.581670e-02    -4.6483e-03      0.262 (TRAH MIcro)
    9     dE    -5.445509e-03     1.063624e-02    -4.9764e-03      0.307 (TRAH MIcro)
    9     dE    -5.780492e-03     1.342337e-02    -5.1727e-03      0.343 (TRAH MIcro)
    9     dE    -6.015844e-03     8.553087e-03    -5.2973e-03      0.368 (TRAH MIcro)
    9     dE    -6.336468e-03     8.126461e-03    -5.4387e-03      0.406 (TRAH MIcro)
    9     dE    -6.441001e-03     5.463201e-03    -5.4769e-03      0.420 (TRAH MIcro)
    9     dE    -6.510094e-03     3.276444e-03    -5.5010e-03      0.428 (TRAH MIcro)
   10       -572.439698363143     8.455124e-03                     1.003 (TRAH MAcro)   No
   10     dE    -2.985912e-05     1.616254e-02    -2.9859e-05      0.004 (TRAH MIcro)
   10     dE    -1.890949e-04     8.512014e-03    -1.8881e-04      0.039 (TRAH MIcro)
   10     dE    -3.170691e-04     9.547727e-03    -3.1528e-04      0.075 (TRAH MIcro)
   10     dE    -4.019286e-04     7.991633e-03    -3.9749e-04      0.106 (TRAH MIcro)
   10     dE    -5.943630e-04     9.405096e-03    -5.7491e-04      0.184 (TRAH MIcro)
   10     dE    -7.307484e-04     9.672462e-03    -6.9009e-04      0.243 (TRAH MIcro)
   10     dE    -8.718041e-04     7.840505e-03    -7.9857e-04      0.303 (TRAH MIcro)
   10     dE    -1.122885e-03     9.885006e-03    -9.6199e-04      0.409 (TRAH MIcro)
   10     dE    -1.247062e-03     7.835729e-03    -1.0315e-03      0.457 (TRAH MIcro)
   10     dE    -1.364361e-03     5.746530e-03    -1.0902e-03      0.501 (TRAH MIcro)
   10     dE    -1.465798e-03     6.463190e-03    -1.1364e-03      0.538 (TRAH MIcro)
   10     dE    -1.570800e-03     6.130991e-03    -1.1808e-03      0.575 (TRAH MIcro)
   10     dE    -1.649021e-03     5.094798e-03    -1.2122e-03      0.600 (TRAH MIcro)
   10     dE    -1.718163e-03     4.248968e-03    -1.2380e-03      0.623 (TRAH MIcro)
   11       -572.441256939824     1.721996e-02                     1.204 (TRAH MAcro)   No
   11     dE    -7.405187e-05     2.308053e-02    -7.4051e-05      0.004 (TRAH MIcro)
   11     dE    -2.273614e-04     9.639517e-03    -2.2723e-04      0.024 (TRAH MIcro)
   11     dE    -3.503313e-04     6.210495e-03    -3.4952e-04      0.048 (TRAH MIcro)
   11     dE    -3.918566e-04     6.398313e-03    -3.9049e-04      0.059 (TRAH MIcro)
   11     dE    -4.581654e-04     6.829177e-03    -4.5474e-04      0.087 (TRAH MIcro)
   11     dE    -5.761305e-04     1.015274e-02    -5.6331e-04      0.151 (TRAH MIcro)
   11     dE    -6.755521e-04     7.274349e-03    -6.4788e-04      0.207 (TRAH MIcro)
   11     dE    -7.643924e-04     6.986452e-03    -7.1727e-04      0.256 (TRAH MIcro)
   11     dE    -8.452473e-04     6.398266e-03    -7.7506e-04      0.301 (TRAH MIcro)
   11     dE    -8.926480e-04     4.942910e-03    -8.0676e-04      0.326 (TRAH MIcro)
   11     dE    -9.448318e-04     4.437973e-03    -8.3958e-04      0.354 (TRAH MIcro)
   11     dE    -9.681849e-04     4.610790e-03    -8.5382e-04      0.366 (TRAH MIcro)
   11     dE    -1.011872e-03     3.932371e-03    -8.7941e-04      0.388 (TRAH MIcro)
   11     dE    -1.062311e-03     4.888185e-03    -9.0714e-04      0.414 (TRAH MIcro)
   12       -572.442453351841     1.199024e-02                     1.445 (TRAH MAcro)   No
   12     dE    -2.339665e-05     1.499288e-02    -2.3397e-05      0.002 (TRAH MIcro)
   12     dE    -8.123872e-05     5.741679e-03    -8.1220e-05      0.015 (TRAH MIcro)
   12     dE    -1.294953e-04     5.503467e-03    -1.2937e-04      0.031 (TRAH MIcro)
   12     dE    -1.489072e-04     5.060865e-03    -1.4865e-04      0.041 (TRAH MIcro)
   12     dE    -2.015805e-04     6.656199e-03    -2.0028e-04      0.081 (TRAH MIcro)
   12     dE    -2.339134e-04     7.891834e-03    -2.3127e-04      0.107 (TRAH MIcro)
   12     dE    -2.974701e-04     6.281172e-03    -2.8995e-04      0.161 (TRAH MIcro)
   12     dE    -3.737098e-04     7.587472e-03    -3.5548e-04      0.226 (TRAH MIcro)
   12     dE    -4.370559e-04     7.886917e-03    -4.0541e-04      0.279 (TRAH MIcro)
   12     dE    -4.736346e-04     4.413881e-03    -4.3225e-04      0.309 (TRAH MIcro)
   12     dE    -4.925511e-04     2.228051e-03    -4.4547e-04      0.325 (TRAH MIcro)
   12     dE    -4.992213e-04     2.053803e-03    -4.5009e-04      0.330 (TRAH MIcro)
   12     dE    -5.021683e-04     1.325907e-03    -4.5210e-04      0.333 (TRAH MIcro)
   12     dE    -5.046761e-04     1.065222e-03    -4.5380e-04      0.335 (TRAH MIcro)
   13       -572.443107752886     8.321463e-03                     1.734 (TRAH MAcro)   No
   13     dE    -1.443385e-05     7.360413e-03    -1.4434e-05      0.002 (TRAH MIcro)
   13     dE    -5.111502e-05     3.415704e-03    -5.1101e-05      0.016 (TRAH MIcro)
   13     dE    -6.765432e-05     4.626958e-03    -6.7611e-05      0.025 (TRAH MIcro)
   13     dE    -9.393481e-05     4.167169e-03    -9.3723e-05      0.048 (TRAH MIcro)
   13     dE    -1.285063e-04     6.336708e-03    -1.2768e-04      0.081 (TRAH MIcro)
   13     dE    -1.698336e-04     8.597230e-03    -1.6735e-04      0.122 (TRAH MIcro)
   13     dE    -3.510975e-04     1.129764e-02    -3.2289e-04      0.296 (TRAH MIcro)
   13     dE    -6.073815e-04     1.735739e-02    -4.8948e-04      0.491 (TRAH MIcro)
   13     dE    -9.179076e-04     1.004777e-02    -6.3541e-04      0.667 (TRAH MIcro)
   13     dE    -1.055792e-03     6.423861e-03    -6.8773e-04      0.732 (TRAH MIcro)
   13     dE    -1.163061e-03     6.004840e-03    -7.2488e-04      0.777 (TRAH MIcro)
   13     dE    -1.209287e-03     3.885490e-03    -7.4007e-04      0.796 (TRAH MIcro)
   13     dE    -1.245541e-03     3.758471e-03    -7.5162e-04      0.811 (TRAH MIcro)
   13     dE    -1.269532e-03     3.570481e-03    -7.5917e-04      0.820 (TRAH MIcro)
 ---------------------------------
          TRAH Step control 
 ---------------------------------
  predicted energy change = -0.001270
  actual energy  change   = 0.001540
  energy change ratio     = -1.213156
  old trust radius        = 1.733686
  new trust radius        = 1.213580
  reject step?            =  1
   14       -572.443107752886     1.199024e-02                     1.214 (TRAH MAcro)  Yes
   15       -572.443107752886     8.321463e-03                     1.214 (TRAH MAcro)   No
   15     dE    -1.443403e-05     7.360335e-03    -1.4434e-05      0.002 (TRAH MIcro)
   15     dE    -5.111535e-05     3.415984e-03    -5.1102e-05      0.016 (TRAH MIcro)
   15     dE    -6.765412e-05     4.627039e-03    -6.7611e-05      0.025 (TRAH MIcro)
   15     dE    -9.393645e-05     4.167352e-03    -9.3725e-05      0.048 (TRAH MIcro)
   15     dE    -1.285089e-04     6.336808e-03    -1.2768e-04      0.081 (TRAH MIcro)
   15     dE    -1.698344e-04     8.597854e-03    -1.6735e-04      0.122 (TRAH MIcro)
   15     dE    -3.510750e-04     1.129756e-02    -3.2287e-04      0.296 (TRAH MIcro)
   15     dE    -6.073761e-04     1.735833e-02    -4.8948e-04      0.491 (TRAH MIcro)
   15     dE    -9.178878e-04     1.004867e-02    -6.3541e-04      0.667 (TRAH MIcro)
   15     dE    -1.055772e-03     6.424074e-03    -6.8773e-04      0.732 (TRAH MIcro)
   15     dE    -1.163063e-03     6.005412e-03    -7.2488e-04      0.777 (TRAH MIcro)
   15     dE    -1.209358e-03     3.883640e-03    -7.4009e-04      0.796 (TRAH MIcro)
   15     dE    -1.245545e-03     3.758585e-03    -7.5162e-04      0.811 (TRAH MIcro)
   15     dE    -1.269552e-03     3.569182e-03    -7.5918e-04      0.820 (TRAH MIcro)
 ---------------------------------
          TRAH Step control 
 ---------------------------------
  predicted energy change = -0.001270
  actual energy  change   = 0.001540
  energy change ratio     = -1.213214
  old trust radius        = 1.213580
  new trust radius        = 0.849506
  reject step?            =  1
   16       -572.443107752886     1.199024e-02                     0.850 (TRAH MAcro)  Yes
   17       -572.443107752885     8.321463e-03                     0.850 (TRAH MAcro)   No
   17     dE    -1.443440e-05     7.359319e-03    -1.4434e-05      0.002 (TRAH MIcro)
   17     dE    -5.111772e-05     3.415423e-03    -5.1104e-05      0.016 (TRAH MIcro)
   17     dE    -6.765443e-05     4.626755e-03    -6.7611e-05      0.025 (TRAH MIcro)
   17     dE    -9.393729e-05     4.167430e-03    -9.3726e-05      0.048 (TRAH MIcro)
   17     dE    -1.285126e-04     6.336858e-03    -1.2768e-04      0.081 (TRAH MIcro)
   17     dE    -1.698347e-04     8.596957e-03    -1.6735e-04      0.122 (TRAH MIcro)
   17     dE    -3.511222e-04     1.129809e-02    -3.2291e-04      0.296 (TRAH MIcro)
   17     dE    -6.074145e-04     1.735465e-02    -4.8950e-04      0.491 (TRAH MIcro)
   17     dE    -9.179707e-04     1.004646e-02    -6.3544e-04      0.667 (TRAH MIcro)
   17     dE    -1.055791e-03     6.423736e-03    -6.8773e-04      0.732 (TRAH MIcro)
   17     dE    -1.163077e-03     6.004287e-03    -7.2489e-04      0.777 (TRAH MIcro)
   17     dE    -1.209476e-03     3.877297e-03    -7.4013e-04      0.796 (TRAH MIcro)
   17     dE    -1.245555e-03     3.758985e-03    -7.5163e-04      0.811 (TRAH MIcro)
   17     dE    -1.269597e-03     3.566908e-03    -7.5919e-04      0.820 (TRAH MIcro)
 ---------------------------------
          TRAH Step control 
 ---------------------------------
  predicted energy change = -0.001270
  actual energy  change   = 0.001540
  energy change ratio     = -1.213339
  old trust radius        = 0.849506
  new trust radius        = 0.594654
  reject step?            =  1
   18       -572.443107752885     1.199024e-02                     0.595 (TRAH MAcro)  Yes
   19       -572.443107752885     8.321463e-03                     0.595 (TRAH MAcro)   No
   19     dE    -1.443411e-05     7.360676e-03    -1.4434e-05      0.002 (TRAH MIcro)
   19     dE    -5.111711e-05     3.415670e-03    -5.1103e-05      0.016 (TRAH MIcro)
   19     dE    -6.765395e-05     4.627161e-03    -6.7611e-05      0.025 (TRAH MIcro)
   19     dE    -9.393006e-05     4.167076e-03    -9.3718e-05      0.048 (TRAH MIcro)
   19     dE    -1.284995e-04     6.337151e-03    -1.2767e-04      0.081 (TRAH MIcro)
   19     dE    -1.698321e-04     8.598451e-03    -1.6735e-04      0.122 (TRAH MIcro)
   19     dE    -3.511138e-04     1.129849e-02    -3.2290e-04      0.296 (TRAH MIcro)
   19     dE    -6.074209e-04     1.735783e-02    -4.8951e-04      0.491 (TRAH MIcro)
   19     dE    -8.532915e-04     8.884285e-03    -7.9579e-04      0.595 (TRAH MIcro)
   19     dE    -9.086479e-04     5.159434e-03    -9.6283e-04      0.595 (TRAH MIcro)
   19     dE    -9.439933e-04     4.539534e-03    -1.0687e-03      0.595 (TRAH MIcro)
   19     dE    -9.578334e-04     2.858940e-03    -1.1099e-03      0.595 (TRAH MIcro)
   19     dE    -9.679976e-04     2.739810e-03    -1.1403e-03      0.595 (TRAH MIcro)
   19     dE    -9.745641e-04     2.556273e-03    -1.1597e-03      0.595 (TRAH MIcro)
   20       -572.443181624852     4.396612e-02                     0.416 (TRAH MAcro)   No
   20     dE    -3.569259e-04     3.493124e-02    -3.5690e-04      0.008 (TRAH MIcro)
   20     dE    -6.649355e-04     5.507002e-03    -6.6423e-04      0.033 (TRAH MIcro)
   20     dE    -6.862112e-04     4.824480e-03    -6.8531e-04      0.036 (TRAH MIcro)
   20     dE    -6.999193e-04     3.147487e-03    -6.9861e-04      0.043 (TRAH MIcro)
   21       -572.443884151387     3.179083e-03                     0.500 (TRAH MAcro)   No
   21     dE    -1.564852e-06     4.961549e-03    -1.5649e-06      0.000 (TRAH MIcro)
   21     dE    -7.748479e-06     1.394351e-03    -7.7483e-06      0.004 (TRAH MIcro)
   21     dE    -1.513586e-05     3.403497e-03    -1.5134e-05      0.012 (TRAH MIcro)
   21     dE    -2.933354e-05     3.029988e-03    -2.9300e-05      0.034 (TRAH MIcro)
   21     dE    -3.689854e-05     2.274455e-03    -3.6820e-05      0.046 (TRAH MIcro)
   21     dE    -4.840026e-05     2.779964e-03    -4.8187e-05      0.067 (TRAH MIcro)
   21     dE    -6.410242e-05     4.332506e-03    -6.3517e-05      0.096 (TRAH MIcro)
   21     dE    -8.634789e-05     3.443567e-03    -8.4680e-05      0.140 (TRAH MIcro)
   21     dE    -1.040349e-04     2.626173e-03    -1.0091e-04      0.176 (TRAH MIcro)
   21     dE    -1.094568e-04     1.874968e-03    -1.0578e-04      0.187 (TRAH MIcro)
   21     dE    -1.153302e-04     2.184288e-03    -1.1099e-04      0.198 (TRAH MIcro)
   21     dE    -1.302935e-04     4.504722e-03    -1.2392e-04      0.227 (TRAH MIcro)
   21     dE    -1.430005e-04     4.499736e-03    -1.3447e-04      0.252 (TRAH MIcro)
   21     dE    -1.705034e-04     4.342290e-03    -1.5589e-04      0.306 (TRAH MIcro)
   22       -572.444006378676     6.978334e-03                     0.500 (TRAH MAcro)   No
   22     dE    -5.691850e-06     1.245866e-02    -5.6918e-06      0.001 (TRAH MIcro)
   22     dE    -2.825278e-05     4.851233e-03    -2.8251e-05      0.008 (TRAH MIcro)
   22     dE    -5.288064e-05     4.413629e-03    -5.2859e-05      0.020 (TRAH MIcro)
   22     dE    -6.053527e-05     3.790125e-03    -6.0493e-05      0.027 (TRAH MIcro)
   22     dE    -6.642969e-05     1.608570e-03    -6.6356e-05      0.033 (TRAH MIcro)
   22     dE    -6.926003e-05     1.405786e-03    -6.9164e-05      0.037 (TRAH MIcro)
   22     dE    -7.073169e-05     1.343447e-03    -7.0623e-05      0.039 (TRAH MIcro)
   22     dE    -7.199472e-05     9.061239e-04    -7.1874e-05      0.041 (TRAH MIcro)
   22     dE    -7.337638e-05     1.298908e-03    -7.3238e-05      0.043 (TRAH MIcro)
   22     dE    -7.504853e-05     1.457854e-03    -7.4884e-05      0.047 (TRAH MIcro)
   22     dE    -7.671302e-05     1.097543e-03    -7.6512e-05      0.051 (TRAH MIcro)
   22     dE    -7.875207e-05     1.576621e-03    -7.8491e-05      0.058 (TRAH MIcro)
   22     dE    -8.098482e-05     1.434163e-03    -8.0638e-05      0.066 (TRAH MIcro)
   22     dE    -8.279079e-05     9.513975e-04    -8.2356e-05      0.073 (TRAH MIcro)
   23       -572.444091564680     1.179557e-03                     0.599 (TRAH MAcro)   No
   23     dE    -3.277476e-07     1.641764e-03    -3.2775e-07      0.000 (TRAH MIcro)
   23     dE    -1.073908e-06     6.294096e-04    -1.0739e-06      0.002 (TRAH MIcro)
   23     dE    -1.838168e-06     8.071919e-04    -1.8381e-06      0.004 (TRAH MIcro)
   23     dE    -2.449273e-06     1.027993e-03    -2.4492e-06      0.007 (TRAH MIcro)
   23     dE    -3.191076e-06     7.020686e-04    -3.1907e-06      0.011 (TRAH MIcro)
   23     dE    -4.054079e-06     8.029742e-04    -4.0530e-06      0.016 (TRAH MIcro)
   23     dE    -4.843405e-06     1.113192e-03    -4.8413e-06      0.021 (TRAH MIcro)
   23     dE    -6.125464e-06     9.753918e-04    -6.1202e-06      0.029 (TRAH MIcro)
   23     dE    -7.549213e-06     1.018530e-03    -7.5375e-06      0.039 (TRAH MIcro)
   23     dE    -9.068474e-06     1.310291e-03    -9.0451e-06      0.051 (TRAH MIcro)
   23     dE    -1.051126e-05     1.094860e-03    -1.0471e-05      0.062 (TRAH MIcro)
   23     dE    -1.185982e-05     9.445444e-04    -1.1797e-05      0.073 (TRAH MIcro)
   23     dE    -1.295336e-05     8.895730e-04    -1.2868e-05      0.082 (TRAH MIcro)
   23     dE    -1.362767e-05     7.765531e-04    -1.3525e-05      0.087 (TRAH MIcro)
   24       -572.444105637727     1.161204e-03                     0.719 (TRAH MAcro)   No
   24     dE    -2.060643e-07     2.024290e-03    -2.0607e-07      0.000 (TRAH MIcro)
   24     dE    -9.455605e-07     7.016898e-04    -9.4556e-07      0.002 (TRAH MIcro)
   24     dE    -1.643867e-06     8.207881e-04    -1.6438e-06      0.004 (TRAH MIcro)
   24     dE    -2.039805e-06     8.278206e-04    -2.0397e-06      0.005 (TRAH MIcro)
   24     dE    -2.387398e-06     5.019023e-04    -2.3873e-06      0.007 (TRAH MIcro)
   24     dE    -2.778001e-06     5.985883e-04    -2.7777e-06      0.010 (TRAH MIcro)
   24     dE    -3.053655e-06     7.065364e-04    -3.0532e-06      0.012 (TRAH MIcro)
   24     dE    -3.427497e-06     5.096497e-04    -3.4268e-06      0.015 (TRAH MIcro)
   24     dE    -3.717335e-06     4.380186e-04    -3.7162e-06      0.017 (TRAH MIcro)
   24     dE    -3.924264e-06     4.732827e-04    -3.9228e-06      0.019 (TRAH MIcro)
   24     dE    -4.096728e-06     3.438731e-04    -4.0950e-06      0.021 (TRAH MIcro)
   24     dE    -4.238564e-06     2.923901e-04    -4.2365e-06      0.022 (TRAH MIcro)
   24     dE    -4.375696e-06     3.609649e-04    -4.3733e-06      0.024 (TRAH MIcro)
   24     dE    -4.512108e-06     3.662883e-04    -4.5093e-06      0.025 (TRAH MIcro)
   25       -572.444110263551     3.908062e-04                           (NR   MAcro)
   25     dE    -9.784136e-08     2.472606e-04                           (NR   MIcro)
   25     dE    -1.818690e-07     1.833674e-04                           (NR   MIcro)
   25     dE    -2.699706e-07     2.885395e-04                           (NR   MIcro)
   25     dE    -3.541838e-07     2.704247e-04                           (NR   MIcro)
   25     dE    -4.545696e-07     2.455130e-04                           (NR   MIcro)
   25     dE    -5.839404e-07     3.468382e-04                           (NR   MIcro)
   25     dE    -7.439177e-07     3.691093e-04                           (NR   MIcro)
   25     dE    -8.870278e-07     3.196944e-04                           (NR   MIcro)
   25     dE    -1.041572e-06     3.240018e-04                           (NR   MIcro)
   25     dE    -1.162022e-06     3.519005e-04                           (NR   MIcro)
   25     dE    -1.292457e-06     2.947275e-04                           (NR   MIcro)
   25     dE    -1.441983e-06     3.137846e-04                           (NR   MIcro)
   25     dE    -1.547845e-06     3.625901e-04                           (NR   MIcro)
   25     dE    -1.821207e-06     3.811385e-04                           (NR   MIcro)
   25     dE    -1.933334e-06     2.968929e-04                           (NR   MIcro)
   26       -572.444112399099     3.135422e-04                           (NR   MAcro)
   26     dE    -4.906000e-08     1.748691e-04                           (NR   MIcro)
   26     dE    -9.762566e-08     1.698484e-04                           (NR   MIcro)
   26     dE    -1.233958e-07     1.809457e-04                           (NR   MIcro)
   26     dE    -1.617103e-07     1.649718e-04                           (NR   MIcro)
   26     dE    -1.929214e-07     1.495801e-04                           (NR   MIcro)
   26     dE    -2.264984e-07     1.599394e-04                           (NR   MIcro)
   26     dE    -2.455073e-07     1.420826e-04                           (NR   MIcro)
   26     dE    -2.663133e-07     9.048770e-05                           (NR   MIcro)
   26     dE    -2.810450e-07     1.093511e-04                           (NR   MIcro)
   26     dE    -2.885889e-07     8.272690e-05                           (NR   MIcro)
   26     dE    -2.981723e-07     8.639166e-05                           (NR   MIcro)
   26     dE    -3.056340e-07     9.054628e-05                           (NR   MIcro)
   26     dE    -3.120338e-07     7.506059e-05                           (NR   MIcro)
   26     dE    -3.198402e-07     8.959517e-05                           (NR   MIcro)
   26     dE    -3.340339e-07     1.496089e-04                           (NR   MIcro)
   27       -572.444112741022     1.508216e-04                           (NR   MAcro)
   27     dE    -8.950211e-09     8.602513e-05                           (NR   MIcro)
   27     dE    -1.370248e-08     4.246142e-05                           (NR   MIcro)
   27     dE    -1.828887e-08     8.795093e-05                           (NR   MIcro)
   27     dE    -2.253971e-08     9.371825e-05                           (NR   MIcro)
   27     dE    -2.923648e-08     6.438408e-05                           (NR   MIcro)
   27     dE    -3.486926e-08     9.455754e-05                           (NR   MIcro)
   27     dE    -4.237859e-08     1.018047e-04                           (NR   MIcro)
   27     dE    -5.008350e-08     7.791067e-05                           (NR   MIcro)
   27     dE    -5.744051e-08     8.212989e-05                           (NR   MIcro)
   27     dE    -6.563171e-08     1.044834e-04                           (NR   MIcro)
   27     dE    -7.201176e-08     8.363764e-05                           (NR   MIcro)
   27     dE    -7.942824e-08     6.345562e-05                           (NR   MIcro)
   27     dE    -8.367246e-08     8.151747e-05                           (NR   MIcro)
   27     dE    -8.959704e-08     6.282819e-05                           (NR   MIcro)
   27     dE    -9.403812e-08     7.649666e-05                           (NR   MIcro)
   28       -572.444112837564     7.731845e-05                           (NR   MAcro)
   28     dE    -3.565314e-09     3.657275e-05                           (NR   MIcro)
   28     dE    -7.115750e-09     5.099660e-05                           (NR   MIcro)
   28     dE    -9.553746e-09     4.502960e-05                           (NR   MIcro)
   28     dE    -1.288656e-08     3.852480e-05                           (NR   MIcro)
   28     dE    -1.543170e-08     4.312834e-05                           (NR   MIcro)
   28     dE    -1.830963e-08     4.296282e-05                           (NR   MIcro)
   28     dE    -2.038916e-08     3.670918e-05                           (NR   MIcro)
   28     dE    -2.220174e-08     2.980775e-05                           (NR   MIcro)
   28     dE    -2.374991e-08     3.661417e-05                           (NR   MIcro)
   28     dE    -2.477206e-08     2.646973e-05                           (NR   MIcro)
   28     dE    -2.585424e-08     2.718077e-05                           (NR   MIcro)
   28     dE    -2.657245e-08     2.705031e-05                           (NR   MIcro)
   28     dE    -2.735764e-08     1.926125e-05                           (NR   MIcro)
   28     dE    -2.808711e-08     2.515232e-05                           (NR   MIcro)
   28     dE    -2.925053e-08     3.420103e-05                           (NR   MIcro)
   29       -572.444112867698     3.434136e-05                           (NR   MAcro)
   29     dE    -9.762066e-10     2.019615e-05                           (NR   MIcro)
   29     dE    -1.505331e-09     1.478364e-05                           (NR   MIcro)
   29     dE    -2.087616e-09     2.380953e-05                           (NR   MIcro)
   29     dE    -2.585688e-09     2.186062e-05                           (NR   MIcro)
   29     dE    -3.307441e-09     2.128818e-05                           (NR   MIcro)
   29     dE    -3.932502e-09     2.840352e-05                           (NR   MIcro)
   29     dE    -4.755834e-09     2.156101e-05                           (NR   MIcro)
   29     dE    -5.547923e-09     2.292979e-05                           (NR   MIcro)
   29     dE    -6.307655e-09     2.457768e-05                           (NR   MIcro)
   29     dE    -7.199161e-09     2.320486e-05                           (NR   MIcro)
   29     dE    -7.843750e-09     1.881315e-05                           (NR   MIcro)
   29     dE    -8.592907e-09     2.000655e-05                           (NR   MIcro)
   29     dE    -9.063324e-09     2.162667e-05                           (NR   MIcro)
   29     dE    -9.639764e-09     1.405702e-05                           (NR   MIcro)
   29     dE    -1.007527e-08     2.508325e-05                           (NR   MIcro)
   30       -572.444112876894     2.535320e-05                           (NR   MAcro)

               *****************************************************
               *                     SUCCESS                       *
               *           SCF CONVERGED AFTER 377 CYCLES          *
               *****************************************************

Old exchange energy                            =    -15.028187177 Eh
New exchange energy                            =    -15.028203788 Eh
Exchange energy change after final integration =     -0.000016611 Eh
Total energy after final integration           =   -572.444129488 Eh
Final COS-X integration done in                =    41.901 sec

----------------
TOTAL SCF ENERGY
----------------

Total Energy       :         -572.44412949 Eh          -15576.99668 eV

Components:
Nuclear Repulsion  :          408.75271831 Eh           11122.72693 eV
Electronic Energy  :         -981.19684780 Eh          -26699.72362 eV
One Electron Energy:        -1580.85439672 Eh          -43017.23509 eV
Two Electron Energy:          599.65754893 Eh           16317.51147 eV
Max COSX asymmetry :            0.00000030 Eh               0.00001 eV

Virial components:
Potential Energy   :        -1139.91613584 Eh          -31018.69502 eV
Kinetic Energy     :          567.47200636 Eh           15441.69833 eV
Virial Ratio       :            2.00876188


DFT components:
N(Alpha)           :       49.000034431198 electrons
N(Beta)            :       47.000007233208 electrons
N(Total)           :       96.000041664407 electrons
E(X)               :      -60.110494807225 Eh       
E(C)               :       -3.238012169519 Eh       
E(XC)              :      -63.348506976744 Eh       
DFET-embed. en.    :        0.000000000000 Eh       

---------------
SCF CONVERGENCE
---------------

  Last Energy change         ...   -9.1967e-09  Tolerance :   1.0000e-08
  Last Orbital Gradient      ...    2.5353e-05  Tolerance :   5.0000e-05
  Last Orbital Rotation      ...    2.2098e-03

             **** THE GBW FILE WAS UPDATED (benzophenone_orca_dft.gbw) ****
             **** DENSITY benzophenone_orca_dft.scfp WAS UPDATED ****
             **** ENERGY FILE WAS UPDATED (benzophenone_orca_dft.en.tmp) ****
----------------------
UHF SPIN CONTAMINATION
----------------------

Warning: in a DFT calculation there is little theoretical justification to 
         calculate <S**2> as in Hartree-Fock theory. We will do it anyways
         but you should keep in mind that the values have only limited relevance

Expectation value of <S**2>     :    11.931904
Ideal value S*(S+1) for S=1.0   :     2.000000
Deviation                       :     9.931904

             **** THE GBW FILE WAS UPDATED (benzophenone_orca_dft.gbw) ****
             **** DENSITY benzophenone_orca_dft.scfp WAS UPDATED ****
----------------
ORBITAL ENERGIES
----------------
                 SPIN UP ORBITALS
  NO   OCC          E(Eh)            E(eV) 
   0   1.0000     -19.196035      -522.3507 
   1   1.0000     -10.383888      -282.5599 
   2   1.0000     -10.353656      -281.7373 
   3   1.0000     -10.353655      -281.7373 
   4   1.0000     -10.342577      -281.4358 
   5   1.0000     -10.342576      -281.4358 
   6   1.0000     -10.341953      -281.4189 
   7   1.0000     -10.341952      -281.4188 
   8   1.0000     -10.338808      -281.3333 
   9   1.0000     -10.338807      -281.3332 
  10   1.0000     -10.334303      -281.2107 
  11   1.0000     -10.334299      -281.2106 
  12   1.0000     -10.319979      -280.8209 
  13   1.0000     -10.319978      -280.8209 
  14   1.0000      -0.843301       -22.9474 
  15   1.0000      -0.646887       -17.6027 
  16   1.0000      -0.622072       -16.9274 
  17   1.0000      -0.621835       -16.9210 
  18   1.0000      -0.608194       -16.5498 
  19   1.0000      -0.596692       -16.2368 
  20   1.0000      -0.589443       -16.0396 
  21   1.0000      -0.588610       -16.0169 
  22   1.0000      -0.543943       -14.8014 
  23   1.0000      -0.543713       -14.7952 
  24   1.0000      -0.532127       -14.4799 
  25   1.0000      -0.531642       -14.4667 
  26   1.0000      -0.501036       -13.6339 
  27   1.0000      -0.500678       -13.6242 
  28   1.0000      -0.323929        -8.8146 
  29   1.0000      -0.322162        -8.7665 
  30   1.0000      -0.316945        -8.6245 
  31   1.0000      -0.316042        -8.5999 
  32   1.0000      -0.313722        -8.5368 
  33   1.0000      -0.313684        -8.5358 
  34   1.0000      -0.312033        -8.4908 
  35   1.0000      -0.302835        -8.2406 
  36   1.0000      -0.302199        -8.2233 
  37   1.0000      -0.301262        -8.1978 
  38   1.0000      -0.299102        -8.1390 
  39   1.0000      -0.293279        -7.9805 
  40   1.0000      -0.292255        -7.9527 
  41   1.0000      -0.282487        -7.6869 
  42   1.0000      -0.277626        -7.5546 
  43   1.0000      -0.274920        -7.4810 
  44   1.0000      -0.273181        -7.4336 
  45   1.0000      -0.269671        -7.3381 
  46   1.0000      -0.269596        -7.3361 
  47   1.0000      -0.260254        -7.0819 
  48   1.0000      -0.260135        -7.0786 
  49   0.0000      -0.203382        -5.5343 
  50   0.0000      -0.186656        -5.0792 
  51   0.0000      -0.186372        -5.0715 
  52   0.0000      -0.176842        -4.8121 
  53   0.0000      -0.169878        -4.6226 
  54   0.0000      -0.160755        -4.3744 
  55   0.0000      -0.160723        -4.3735 
  56   0.0000      -0.153403        -4.1743 
  57   0.0000      -0.153279        -4.1709 
  58   0.0000      -0.147506        -4.0139 
  59   0.0000      -0.146671        -3.9911 
  60   0.0000      -0.144606        -3.9349 
  61   0.0000      -0.140761        -3.8303 
  62   0.0000      -0.131521        -3.5789 
  63   0.0000      -0.131387        -3.5752 
  64   0.0000      -0.101082        -2.7506 
  65   0.0000      -0.100629        -2.7383 
  66   0.0000      -0.096218        -2.6182 
  67   0.0000      -0.095551        -2.6001 
  68   0.0000      -0.087456        -2.3798 
  69   0.0000      -0.087260        -2.3745 
  70   0.0000      -0.081020        -2.2047 
  71   0.0000      -0.079211        -2.1554 
  72   0.0000      -0.075338        -2.0500 
  73   0.0000      -0.074922        -2.0387 
  74   0.0000      -0.067503        -1.8368 
  75   0.0000      -0.067438        -1.8351 
  76   0.0000      -0.055771        -1.5176 
  77   0.0000      -0.054874        -1.4932 
  78   0.0000      -0.049783        -1.3547 
  79   0.0000      -0.049344        -1.3427 
  80   0.0000       0.130561         3.5527 
  81   0.0000       0.145780         3.9669 
  82   0.0000       0.161288         4.3889 
  83   0.0000       0.167881         4.5683 
  84   0.0000       0.178507         4.8574 
  85   0.0000       0.185762         5.0549 
  86   0.0000       0.186424         5.0729 
  87   0.0000       0.192705         5.2438 
  88   0.0000       0.197136         5.3643 
  89   0.0000       0.198314         5.3964 
  90   0.0000       0.200324         5.4511 
  91   0.0000       0.204919         5.5761 
  92   0.0000       0.212497         5.7823 
  93   0.0000       0.220428         5.9981 
  94   0.0000       0.220937         6.0120 
  95   0.0000       0.223650         6.0858 
  96   0.0000       0.224777         6.1165 
  97   0.0000       0.231922         6.3109 
  98   0.0000       0.240268         6.5380 
  99   0.0000       0.241607         6.5745 
 100   0.0000       0.245272         6.6742 
 101   0.0000       0.247918         6.7462 
 102   0.0000       0.248700         6.7675 
 103   0.0000       0.252264         6.8645 
 104   0.0000       0.256658         6.9840 
 105   0.0000       0.259516         7.0618 
 106   0.0000       0.262291         7.1373 
 107   0.0000       0.264131         7.1874 
 108   0.0000       0.265278         7.2186 
 109   0.0000       0.272249         7.4083 
 110   0.0000       0.273830         7.4513 
 111   0.0000       0.278148         7.5688 
 112   0.0000       0.279930         7.6173 
 113   0.0000       0.281870         7.6701 
 114   0.0000       0.287033         7.8106 
 115   0.0000       0.287349         7.8192 
 116   0.0000       0.302762         8.2386 
 117   0.0000       0.304808         8.2942 
 118   0.0000       0.306285         8.3344 
 119   0.0000       0.312168         8.4945 
 120   0.0000       0.314534         8.5589 
 121   0.0000       0.318843         8.6762 
 122   0.0000       0.321342         8.7442 
 123   0.0000       0.324737         8.8365 
 124   0.0000       0.325600         8.8600 
 125   0.0000       0.331552         9.0220 
 126   0.0000       0.340510         9.2658 
 127   0.0000       0.340778         9.2730 
 128   0.0000       0.368464        10.0264 
 129   0.0000       0.370137        10.0719 
 130   0.0000       0.380188        10.3454 
 131   0.0000       0.392900        10.6914 
 132   0.0000       0.402303        10.9472 
 133   0.0000       0.408617        11.1190 
 134   0.0000       0.416753        11.3404 
 135   0.0000       0.425011        11.5651 
 136   0.0000       0.457464        12.4482 
 137   0.0000       0.461880        12.5684 
 138   0.0000       0.469387        12.7727 
 139   0.0000       0.469579        12.7779 
 140   0.0000       0.476011        12.9529 
 141   0.0000       0.481203        13.0942 
 142   0.0000       0.516565        14.0564 
 143   0.0000       0.523408        14.2427 
 144   0.0000       0.525087        14.2883 
 145   0.0000       0.532516        14.4905 
 146   0.0000       0.538820        14.6620 
 147   0.0000       0.551497        15.0070 
[...]
      dxz     :    -0.001315
      dyz     :    -0.003936
      dx2y2   :    -0.005016
      dxy     :    -0.000403
      f0      :    -0.000024  f :    -0.000334
      f+1     :    -0.000014
      f-1     :    -0.000008
      f+2     :    -0.000159
      f-2     :    -0.000008
      f+3     :    -0.000018
      f-3     :    -0.000103
  9 H s       :     0.515961  s :     0.515961
      pz      :    -0.000485  p :    -0.001829
      px      :    -0.000329
      py      :    -0.001016
 10 H s       :     0.540242  s :     0.540242
      pz      :    -0.001462  p :    -0.001958
      px      :    -0.000227
      py      :    -0.000269
 11 H s       :     0.537010  s :     0.537010
      pz      :    -0.001401  p :    -0.001963
      px      :    -0.000403
      py      :    -0.000159
 12 H s       :    -0.512286  s :    -0.512286
      pz      :     0.000483  p :     0.001867
      px      :     0.000403
      py      :     0.000981
 13 H s       :    -0.531596  s :    -0.531596
      pz      :     0.000376  p :     0.001936
      px      :     0.000222
      py      :     0.001338
 14 C s       :     0.003433  s :     0.003433
      pz      :    -0.604774  p :    -1.328093
      px      :    -0.596153
      py      :    -0.127165
      dz2     :     0.001284  d :     0.008011
      dxz     :     0.002047
      dyz     :     0.002751
      dx2y2   :     0.000064
      dxy     :     0.001866
      f0      :     0.000085  f :     0.000331
      f+1     :     0.000049
      f-1     :    -0.000001
      f+2     :     0.000044
      f-2     :     0.000108
      f+3     :     0.000050
      f-3     :    -0.000004
 15 C s       :     0.021905  s :     0.021905
      pz      :    -0.414107  p :    -1.124663
      px      :    -0.074240
      py      :    -0.636315
      dz2     :     0.004624  d :     0.016349
      dxz     :     0.003810
      dyz     :     0.002872
      dx2y2   :     0.003101
      dxy     :     0.001941
      f0      :     0.000131  f :     0.000459
      f+1     :     0.000106
      f-1     :     0.000031
      f+2     :     0.000103
      f-2     :     0.000033
      f+3     :     0.000038
      f-3     :     0.000016
 16 C s       :     0.015045  s :     0.015045
      pz      :    -0.494612  p :    -1.272804
      px      :    -0.433004
      py      :    -0.345187
      dz2     :     0.003877  d :     0.010928
      dxz     :     0.003348
      dyz     :     0.002075
      dx2y2   :     0.001500
      dxy     :     0.000128
      f0      :     0.000100  f :     0.000326
      f+1     :     0.000130
      f-1     :    -0.000004
      f+2     :     0.000072
      f-2     :     0.000026
      f+3     :    -0.000013
      f-3     :     0.000015
 17 C s       :    -0.004197  s :    -0.004197
      pz      :     0.029336  p :     1.310305
      px      :     0.751614
      py      :     0.529355
      dz2     :     0.001212  d :    -0.008767
      dxz     :    -0.001228
      dyz     :    -0.004485
      dx2y2   :    -0.002593
      dxy     :    -0.001673
      f0      :     0.000005  f :    -0.000317
      f+1     :    -0.000001
      f-1     :    -0.000021
      f+2     :    -0.000121
      f-2     :    -0.000074
      f+3     :    -0.000070
      f-3     :    -0.000035
 18 C s       :    -0.013272  s :    -0.013272
      pz      :     0.112331  p :     1.292382
      px      :     0.677390
      py      :     0.502660
      dz2     :     0.000164  d :    -0.010506
      dxz     :    -0.001315
      dyz     :    -0.003936
      dx2y2   :    -0.005016
      dxy     :    -0.000403
      f0      :    -0.000024  f :    -0.000334
      f+1     :    -0.000014
      f-1     :    -0.000008
      f+2     :    -0.000159
      f-2     :    -0.000008
      f+3     :    -0.000018
      f-3     :    -0.000103
 19 H s       :     0.515961  s :     0.515961
      pz      :    -0.000485  p :    -0.001829
      px      :    -0.000329
      py      :    -0.001016
 20 H s       :     0.537010  s :     0.537010
      pz      :    -0.001401  p :    -0.001963
      px      :    -0.000403
      py      :    -0.000159
 21 H s       :     0.540242  s :     0.540242
      pz      :    -0.001462  p :    -0.001958
      px      :    -0.000227
      py      :    -0.000269
 22 H s       :    -0.512287  s :    -0.512287
      pz      :     0.000483  p :     0.001867
      px      :     0.000403
      py      :     0.000981
 23 H s       :    -0.531596  s :    -0.531596
      pz      :     0.000376  p :     0.001936
      px      :     0.000222
      py      :     0.001338


                      *****************************
                      * MAYER POPULATION ANALYSIS *
                      *****************************

  NA   - Mulliken gross atomic population
  ZA   - Total nuclear charge
  QA   - Mulliken gross atomic charge
  VA   - Mayer's total valence
  BVA  - Mayer's bonded valence
  FA   - Mayer's free valence

  ATOM       NA         ZA         QA         VA         BVA        FA
  0 C      5.8686     6.0000     0.1314     2.3536     1.1206     1.2330
  1 O      8.1120     8.0000    -0.1120     2.0614     0.4070     1.6544
  2 C      6.0032     6.0000    -0.0032     2.4322     1.0510     1.3812
  3 C      6.0032     6.0000    -0.0032     2.4322     1.0510     1.3812
  4 C      6.0445     6.0000    -0.0445     2.5291     1.5032     1.0259
  5 C      5.9786     6.0000     0.0214     2.1543     1.2538     0.9005
  6 C      6.0275     6.0000    -0.0275     2.4673     1.4352     1.0320
  7 C      5.9911     6.0000     0.0089     2.3699     1.4686     0.9014
  8 C      5.9994     6.0000     0.0006     2.3766     1.4062     0.9704
  9 H      0.9921     1.0000     0.0079     0.9866     0.6436     0.3430
 10 H      0.9856     1.0000     0.0144     0.9856     0.6109     0.3747
 11 H      0.9919     1.0000     0.0081     0.9856     0.6157     0.3699
 12 H      1.0031     1.0000    -0.0031     0.9858     0.6472     0.3386
 13 H      0.9926     1.0000     0.0074     0.9856     0.6227     0.3628
 14 C      6.0445     6.0000    -0.0445     2.5291     1.5032     1.0259
 15 C      5.9786     6.0000     0.0214     2.1543     1.2538     0.9005
 16 C      5.9911     6.0000     0.0089     2.3699     1.4686     0.9014
 17 C      6.0275     6.0000    -0.0275     2.4673     1.4352     1.0320
 18 C      5.9994     6.0000     0.0006     2.3766     1.4062     0.9704
 19 H      0.9921     1.0000     0.0079     0.9866     0.6436     0.3430
 20 H      0.9919     1.0000     0.0081     0.9856     0.6157     0.3699
 21 H      0.9856     1.0000     0.0144     0.9856     0.6109     0.3747
 22 H      1.0031     1.0000    -0.0031     0.9858     0.6472     0.3386
 23 H      0.9926     1.0000     0.0074     0.9856     0.6227     0.3628

  Mayer bond orders larger than 0.100000
B(  0-C ,  1-O ) :   0.3783 B(  0-C ,  2-C ) :   0.3265 B(  0-C ,  3-C ) :   0.3265 
B(  2-C , 14-C ) :   0.3177 B(  2-C , 15-C ) :   0.2870 B(  3-C ,  4-C ) :   0.3177 
B(  3-C ,  5-C ) :   0.2870 B(  4-C ,  7-C ) :   0.5193 B(  4-C ,  9-H ) :   0.5921 
B(  5-C ,  6-C ) :   0.3238 B(  5-C , 10-H ) :   0.5716 B(  6-C ,  8-C ) :   0.4456 
B(  6-C , 12-H ) :   0.6051 B(  7-C ,  8-C ) :   0.3000 B(  7-C , 11-H ) :   0.5796 
B(  8-C , 13-H ) :   0.5858 B( 14-C , 16-C ) :   0.5193 B( 14-C , 19-H ) :   0.5921 
B( 15-C , 17-C ) :   0.3238 B( 15-C , 21-H ) :   0.5716 B( 16-C , 18-C ) :   0.3000 
B( 16-C , 20-H ) :   0.5796 B( 17-C , 18-C ) :   0.4456 B( 17-C , 22-H ) :   0.6051 
B( 18-C , 23-H ) :   0.5858 

-------
TIMINGS
-------

Total SCF time: 0 days 0 hours 54 min 28 sec 

Total time                  ....    3268.752 sec
Sum of individual times     ....    3251.226 sec  ( 99.5%)

Fock matrix formation       ....    3227.250 sec  ( 98.7%)
  Split-RI-J                ....     483.806 sec  ( 15.0% of F)
  Chain of spheres X        ....    2499.009 sec  ( 77.4% of F)
  XC integration            ....     243.393 sec  (  7.5% of F)
    Basis function eval.    ....      56.514 sec  ( 23.2% of XC)
    Density eval.           ....      71.747 sec  ( 29.5% of XC)
    XC-Functional eval.     ....      13.356 sec  (  5.5% of XC)
    XC-Potential eval.      ....      87.906 sec  ( 36.1% of XC)
Diagonalization             ....       2.783 sec  (  0.1%)
Density matrix formation    ....       0.992 sec  (  0.0%)
Population analysis         ....       0.136 sec  (  0.0%)
Initial guess               ....       1.255 sec  (  0.0%)
Orbital Transformation      ....      12.793 sec  (  0.4%)
Orbital Orthonormalization  ....       0.000 sec  (  0.0%)
DIIS solution               ....       1.202 sec  (  0.0%)
Grid generation             ....       4.809 sec  (  0.1%)

Maximum memory used throughout the entire SCF-calculation: 210.4 MB

-------------------------   --------------------
FINAL SINGLE POINT ENERGY      -572.444129487708
-------------------------   --------------------

   --->>> g-tensor requested, so NeedSOC=true

                            ***************************************
                            *     ORCA property calculations      *
                            ***************************************

                                    ---------------------
                                    Active property flags
                                    ---------------------
   (+) Dipole Moment
   (+) g-tensor
   (+) Spin-Orbit Integrals are needed


------------------------------------------------------------------------------
                       ORCA ELECTRIC PROPERTIES CALCULATION
------------------------------------------------------------------------------

Dipole Moment Calculation                       ... on
Quadrupole Moment Calculation                   ... off
Polarizability Calculation                      ... off
GBWName                                         ... benzophenone_orca_dft.gbw
Electron density                                ... benzophenone_orca_dft.scfp
The origin for moment calculation is the CENTER OF MASS  = ( 0.000000, -0.000000 -0.000013)

-------------
DIPOLE MOMENT
-------------
                                X             Y             Z
Electronic contribution:      0.00000      -0.00000       8.42884
Nuclear contribution   :     -0.00000      -0.00000      -8.62960
                        -----------------------------------------
Total Dipole Moment    :      0.00000      -0.00000      -0.20076
                        -----------------------------------------
Magnitude (a.u.)       :      0.20076
Magnitude (Debye)      :      0.51028



--------------------
Rotational spectrum 
--------------------
 
Rotational constants in cm-1:     0.016592     0.003751     0.003196 
Rotational constants in MHz :   497.414857   112.444850    95.808176 

 Dipole components along the rotational axes: 
x,y,z [a.u.] :    -0.000003    -0.200757    -0.000003 
x,y,z [Debye]:    -0.000007    -0.510283    -0.000007 

 
------------------------------------------------------------------------------
                         ORCA SPIN-ORBIT COUPLING CALCULATION
------------------------------------------------------------------------------

GBW file                                    ... benzophenone_orca_dft.gbw
Input density                               ... benzophenone_orca_dft.scfp
Output integrals                            ... benzophenone_orca_dft
Operator type                               ... Mean-field/Effective potential
   One-Electron Terms                       ... 1
   Coulomb Contribution                     ... 2
   Exchange Contribution                    ... 3
   Correlation Contribution                 ... 0
   Maximum number of centers                ... 4
Setting up the integration grid             ... done
Evaluating density on the grid              ... (NumEl=   96.000042) done
Evaluating Coulomb term semi-analytically   ... done
SHARK 2-electron DoJ,X=0,1 MaxCenter=1      ... done (  3.9 sec)
Evaluating the spin-orbit operator          ... done

Maximum memory used throughout the entire SOC-calculation: 222.7 MB
Total time for SOC: 112.925
------------------------------------------------------------------------------
                                ORCA EPR/NMR CALCULATION
------------------------------------------------------------------------------

GBWName                      ... benzophenone_orca_dft.gbw
Electron density             ... benzophenone_orca_dft.scfp
Spin density                 ... benzophenone_orca_dft.scfr
Spin-orbit integrals         ... benzophenone_orca_dft
Origin for angular momentum  ... Center of electronic charge
Coordinates of the origin    ...   -0.00000003    0.00000003   -0.08781329 (bohrs)
Details of the CP(SCF) procedure:
       Solver   = POPLE   
       MaxIter  =   300   
       Tolerance=    1.000e-08
       COSX Grid=     1   
       Op-0     =   0- 48 =>  49-493
       Op-1     =   0- 46 =>  47-493
Multiplicity                 ... 3
g-tensor                     ... 1
NMR chemical shifts          ... 0
NMR spin-spin couplings      ... 0
NMR spectrum                 ... 0
Forming RHS of the CP-SCF equations         ... 
Calc. angular momentum integrals (SHARK)    ... done

------------------------------------------------------------------------------
                           ORCA CP-SCF CALCULATION
------------------------------------------------------------------------------

Input orbitals are from        ... benzophenone_orca_dft.gbw
Input Perturbation             ... benzophenone_orca_dft.pin.tmp
Wavefunction output            ... benzophenone_orca_dft.pout.tmp
Perturbation mode              ... Imaginary perturbation
Solver                         ... POPLE
Max. number of iterations      ... 300
Convergence tolerance          ... 1.000e-08
Integral handling              ... Direct
DFT GridXC                     ... 1
COSX GridX                     ... 1
COSX IntAccX                   ... 3.067
COSX Algorithm                 ... Auto
Number of perturbations        ... 3
Number of operators            ... 2
Orbital ranges used for CP-SCF:
 Operator 0:  Orbitals   0... 48  to  49...493
 Operator 1:  Orbitals   0... 46  to  47...493
Variables per perturbation     ... 42814
DFT calculation                         ... on
XC functional terms                     ... off
Hybrid DFT                              ... on
   Exchange mixing (SCF)                ...  0.200
   Exchange mixing (CP-SCF)             ...  0.200
   GGA exch. scaling(SCF)               ...  0.720
   GGA exch. scaling (CP-SCF)           ...  0.720
   GGA corr. scaling (SCF)              ...  0.810
   GGA corr. scaling (CP-SCF)           ...  0.810

CP-SCF GRID
-----------

General Integration Accuracy     IntAcc      ... 3.467
Radial Grid Type                 RadialGrid  ... OptM3 with GC (2021)
Angular Grid (max. ang.)         AngularGrid ... 1 (Lebedev-50)
Angular grid pruning method      GridPruning ... 4 (adaptive)
Weight generation scheme         WeightScheme... Becke
Basis function cutoff            BFCut       ... 1.0000e-10
Integration weight cutoff        WCut        ... 1.0000e-14
Angular grids for H and He will be reduced by one unit
Partially contracted basis set               ... off
Rotationally invariant grid construction     ... off

Total number of grid points                  ...    17700
Total number of batches                      ...      290
Average number of points per batch           ...       61
Average number of grid points per atom       ...      738

CP-SCF GRIDX
------------

General Integration Accuracy     IntAcc      ... 3.067
Radial Grid Type                 RadialGrid  ... OptM3 with GC (2021)
Angular Grid (max. ang.)         AngularGrid ... 1 (Lebedev-50)
Angular grid pruning method      GridPruning ... 4 (adaptive)
Weight generation scheme         WeightScheme... Becke
Basis function cutoff            BFCut       ... 1.0000e-10
Integration weight cutoff        WCut        ... 1.0000e-14
Angular grids for H and He will be reduced by one unit
Partially contracted basis set               ... on
Rotationally invariant grid construction     ... off

Total number of grid points                  ...     8048
Total number of batches                      ...      138
Average number of points per batch           ...       58
Average number of grid points per atom       ...      335

Memory available               ... 767.6 MB
Memory needed per perturbation ... 206.4 MB
Perturbations treated per batch... 3
Number of batches              ... 1
     CP-SCF ITERATION   0:   1.1208e+01 (   9.3 sec   0/  3 done)
     CP-SCF ITERATION   1:   5.6675e+00 (   8.3 sec   0/  3 done)
     CP-SCF ITERATION   2:   1.2701e+00 (   8.6 sec   0/  3 done)
     CP-SCF ITERATION   3:   5.8115e-01 (   8.6 sec   0/  3 done)
     CP-SCF ITERATION   4:   2.1482e-01 (   8.1 sec   0/  3 done)
     CP-SCF ITERATION   5:   8.2877e-02 (   8.1 sec   0/  3 done)
     CP-SCF ITERATION   6:   3.7308e-02 (   8.1 sec   0/  3 done)
     CP-SCF ITERATION   7:   2.0160e-02 (   8.1 sec   0/  3 done)
     CP-SCF ITERATION   8:   6.8992e-03 (   8.2 sec   0/  3 done)
     CP-SCF ITERATION   9:   1.7556e-03 (   8.2 sec   0/  3 done)
     CP-SCF ITERATION  10:   9.2657e-04 (   8.2 sec   0/  3 done)
     CP-SCF ITERATION  11:   3.7284e-04 (   8.2 sec   0/  3 done)
     CP-SCF ITERATION  12:   8.8212e-05 (   8.2 sec   0/  3 done)
     CP-SCF ITERATION  13:   3.1663e-05 (   8.2 sec   0/  3 done)
     CP-SCF ITERATION  14:   9.4501e-06 (   8.2 sec   0/  3 done)
     CP-SCF ITERATION  15:   3.1789e-06 (   8.2 sec   0/  3 done)
     CP-SCF ITERATION  16:   1.2876e-06 (   8.3 sec   0/  3 done)
     CP-SCF ITERATION  17:   5.8886e-07 (   8.3 sec   0/  3 done)
     CP-SCF ITERATION  18:   2.3226e-07 (   8.3 sec   0/  3 done)
     CP-SCF ITERATION  19:   7.8937e-08 (   8.3 sec   0/  3 done)
     CP-SCF ITERATION  20:   2.2863e-08 (   8.3 sec   2/  3 done)
     CP-SCF ITERATION  21:   6.4523e-09 (   5.4 sec   3/  3 done)
                    *** THE CP-SCF HAS CONVERGED ***

Forming final perturbed densities           ... done
Transforming perturbed density to AO basis  ... done

Magnetic field perturbation calculated in 180.802 sec
Diamagnetic terms                           (SHARK) ...ORIGIN= -0.000000  0.000000 -0.087813
done
terms done

-------------------
ELECTRONIC G-MATRIX
-------------------

 The g-matrix: 
              1.9968862    0.0055612    0.0000001
              0.0045009    1.9701461   -0.0000000
              0.0000001   -0.0000000    1.9861691

 gel          2.0023193    2.0023193    2.0023193
 gRMC         0.0000603    0.0000603    0.0000603
 gDSO(tot)   -0.0000254    0.0000240   -0.0000937
 gPSO(tot)   -0.0331233   -0.0162345   -0.0044845
             ----------   ----------   ----------
 g(tot)       1.9692310    1.9861691    1.9978015 iso=  1.9844005
 Delta-g     -0.0330883   -0.0161502   -0.0045178 iso= -0.0179188
 Orientation: 
  X          -0.1788500    0.0000046   -0.9838764
  Y           0.9838764    0.0000032   -0.1788500
  Z           0.0000023   -1.0000000   -0.0000050

Notes:  (1) The g-matrix conforms to the "BgS" spin Hamiltonian convention. 
        (2) The principal values are square roots of the eigenvalues of g*gT.
        (3) Orientations are eigenvectors of g*gT written as column vectors.
        (4) Individual contributions are projections of the full matrices onto the eigenvectors of g*gT.
        (5) Tensor is right-handed.


Maximum memory used throughout the entire EPRNMR-calculation: 336.9 MB

Timings for individual modules:

Sum of individual times         ...     3566.745 sec (=  59.446 min)
GTO integral calculation        ...        1.848 sec (=   0.031 min)   0.1 %
Spin-Orbit-Coupling Matrices    ...      112.921 sec (=   1.882 min)   3.2 %
SCF iterations                  ...     3268.864 sec (=  54.481 min)  91.6 %
EPR/NMR calculation             ...      183.112 sec (=   3.052 min)   5.1 %
                             ****ORCA TERMINATED NORMALLY****
TOTAL RUN TIME: 0 days 0 hours 59 minutes 28 seconds 21 msec
