
                                 *****************
                                 * O   R   C   A *
                                 *****************

                                            #,                                       
                                            ###                                      
                                            ####                                     
                                            #####                                    
                                            ######                                   
                                           ########,                                 
                                     ,,################,,,,,                         
                               ,,#################################,,                 
                          ,,##########################################,,             
                       ,#########################################, ''#####,          
                    ,#############################################,,   '####,        
                  ,##################################################,,,,####,       
                ,###########''''           ''''###############################       
              ,#####''   ,,,,##########,,,,          '''####'''          '####       
            ,##' ,,,,###########################,,,                        '##       
           ' ,,###''''                  '''############,,,                           
         ,,##''                                '''############,,,,        ,,,,,,###''
      ,#''                                            '''#######################'''  
     '                                                          ''''####''''         
             ,#######,   #######,   ,#######,      ##                                
            ,#'     '#,  ##    ##  ,#'     '#,    #''#        ######   ,####,        
            ##       ##  ##   ,#'  ##            #'  '#       #        #'  '#        
            ##       ##  #######   ##           ,######,      #####,   #    #        
            '#,     ,#'  ##    ##  '#,     ,#' ,#      #,         ##   #,  ,#        
             '#######'   ##     ##  '#######'  #'      '#     #####' # '####'        



                  #######################################################
                  #                        -***-                        #
                  #          Department of theory and spectroscopy      #
                  #    Directorship and core code : Frank Neese         #
                  #        Max Planck Institute fuer Kohlenforschung    #
                  #                Kaiser Wilhelm Platz 1               #
                  #                 D-45470 Muelheim/Ruhr               #
                  #                      Germany                        #
                  #                                                     #
                  #                  All rights reserved                #
                  #                        -***-                        #
                  #######################################################


                         Program Version 5.0.3 -  RELEASE  -


 With contributions from (in alphabetic order):
   Daniel Aravena         : Magnetic Suceptibility
   Michael Atanasov       : Ab Initio Ligand Field Theory (pilot matlab implementation)
   Alexander A. Auer      : GIAO ZORA, VPT2 properties, NMR spectrum
   Ute Becker             : Parallelization
   Giovanni Bistoni       : ED, misc. LED, open-shell LED, HFLD
   Martin Brehm           : Molecular dynamics
   Dmytro Bykov           : SCF Hessian
   Vijay G. Chilkuri      : MRCI spin determinant printing, contributions to CSF-ICE
   Dipayan Datta          : RHF DLPNO-CCSD density
   Achintya Kumar Dutta   : EOM-CC, STEOM-CC
   Dmitry Ganyushin       : Spin-Orbit,Spin-Spin,Magnetic field MRCI
   Miquel Garcia          : C-PCM and meta-GGA Hessian, CC/C-PCM, Gaussian charge scheme
   Yang Guo               : DLPNO-NEVPT2, F12-NEVPT2, CIM, IAO-localization
   Andreas Hansen         : Spin unrestricted coupled pair/coupled cluster methods
   Benjamin Helmich-Paris : MC-RPA, TRAH-SCF, COSX integrals
   Lee Huntington         : MR-EOM, pCC
   Robert Izsak           : Overlap fitted RIJCOSX, COSX-SCS-MP3, EOM
   Marcus Kettner         : VPT2
   Christian Kollmar      : KDIIS, OOCD, Brueckner-CCSD(T), CCSD density, CASPT2, CASPT2-K
   Simone Kossmann        : Meta GGA functionals, TD-DFT gradient, OOMP2, MP2 Hessian
   Martin Krupicka        : Initial AUTO-CI
   Lucas Lang             : DCDCAS
   Marvin Lechner         : AUTO-CI (C++ implementation), FIC-MRCC
   Dagmar Lenk            : GEPOL surface, SMD
   Dimitrios Liakos       : Extrapolation schemes; Compound Job, initial MDCI parallelization
   Dimitrios Manganas     : Further ROCIS development; embedding schemes
   Dimitrios Pantazis     : SARC Basis sets
   Anastasios Papadopoulos: AUTO-CI, single reference methods and gradients
   Taras Petrenko         : DFT Hessian,TD-DFT gradient, ASA, ECA, R-Raman, ABS, FL, XAS/XES, NRVS
   Peter Pinski           : DLPNO-MP2, DLPNO-MP2 Gradient
   Christoph Reimann      : Effective Core Potentials
   Marius Retegan         : Local ZFS, SOC
   Christoph Riplinger    : Optimizer, TS searches, QM/MM, DLPNO-CCSD(T), (RO)-DLPNO pert. Triples
   Tobias Risthaus        : Range-separated hybrids, TD-DFT gradient, RPA, STAB
   Michael Roemelt        : Original ROCIS implementation
   Masaaki Saitow         : Open-shell DLPNO-CCSD energy and density
   Barbara Sandhoefer     : DKH picture change effects
   Avijit Sen             : IP-ROCIS
   Kantharuban Sivalingam : CASSCF convergence, NEVPT2, FIC-MRCI
   Bernardo de Souza      : ESD, SOC TD-DFT
   Georgi Stoychev        : AutoAux, RI-MP2 NMR, DLPNO-MP2 response
   Willem Van den Heuvel  : Paramagnetic NMR
   Boris Wezisla          : Elementary symmetry handling
   Frank Wennmohs         : Technical directorship


 We gratefully acknowledge several colleagues who have allowed us to
 interface, adapt or use parts of their codes:
   Stefan Grimme, W. Hujo, H. Kruse, P. Pracht,  : VdW corrections, initial TS optimization,
                  C. Bannwarth, S. Ehlert          DFT functionals, gCP, sTDA/sTD-DF
   Ed Valeev, F. Pavosevic, A. Kumar             : LibInt (2-el integral package), F12 methods
   Garnet Chan, S. Sharma, J. Yang, R. Olivares  : DMRG
   Ulf Ekstrom                                   : XCFun DFT Library
   Mihaly Kallay                                 : mrcc  (arbitrary order and MRCC methods)
   Jiri Pittner, Ondrej Demel                    : Mk-CCSD
   Frank Weinhold                                : gennbo (NPA and NBO analysis)
   Christopher J. Cramer and Donald G. Truhlar   : smd solvation model
   Lars Goerigk                                  : TD-DFT with DH, B97 family of functionals
   V. Asgeirsson, H. Jonsson                     : NEB implementation
   FAccTs GmbH                                   : IRC, NEB, NEB-TS, DLPNO-Multilevel, CI-OPT
                                                   MM, QMMM, 2- and 3-layer-ONIOM, Crystal-QMMM,
                                                   LR-CPCM, SF, NACMEs, symmetry and pop. for TD-DFT,
                                                   nearIR, NL-DFT gradient (VV10), updates on ESD,
                                                   ML-optimized integration grids
   S Lehtola, MJT Oliveira, MAL Marques          : LibXC Library
   Liviu Ungur et al                             : ANISO software


 Your calculation uses the libint2 library for the computation of 2-el integrals
 For citations please refer to: http://libint.valeyev.net

 Your ORCA version has been built with support for libXC version: 5.1.0
 For citations please refer to: https://tddft.org/programs/libxc/

 This ORCA versions uses:
   CBLAS   interface :  Fast vector & matrix operations
   LAPACKE interface :  Fast linear algebra routines
   SCALAPACK package :  Parallel linear algebra routines
   Shared memory     :  Shared parallel matrices
   BLAS/LAPACK       :  OpenBLAS 0.3.15  USE64BITINT DYNAMIC_ARCH NO_AFFINITY Haswell SINGLE_THREADED
        Core in use  :  Haswell
   Copyright (c) 2011-2014, The OpenBLAS Project




***************************************
The coordinates will be read from file: hexacene_opt.xyz
***************************************


================================================================================

----- Orbital basis set information -----
Your calculation utilizes the basis: def2-TZVP
   F. Weigend and R. Ahlrichs, Phys. Chem. Chem. Phys. 7, 3297 (2005).

----- AuxJ basis set information -----
Your calculation utilizes the auxiliary basis: def2/J
   F. Weigend, Phys. Chem. Chem. Phys. 8, 1057 (2006).

================================================================================
                                        WARNINGS
                       Please study these warnings very carefully!
================================================================================


WARNING: your system is open-shell and RHF/RKS was chosen
  ===> : WILL SWITCH to UHF/UKS


INFO   : the flag for use of the SHARK integral package has been found!

================================================================================
                                       INPUT FILE
================================================================================
NAME = hexacene_opt_orca_dft.inp
|  1> # List of keywords
|  2> !B3LYP def2-TZVP SOMF(1X) SMALLPRINT #DKH
|  3> 
|  4> %METHOD 			# DFT input block
|  5> END	
|  6> 
|  7> %SCF                            # Control of the SCF procedure
|  8>  maxiter 500                    # max. number of SCF iterations
|  9>  TolE 1e-8                      # energy change between two cycles
| 10>  TolErr 5e-7                    # DIIS error convergence
| 11>  ConvForced 1                   # 0: converg. not mandatory; 1: break if not meet convergence
| 12> END
| 13> 
| 14> %EPRNMR 			# Control of EPR and NMR calculations
| 15>  gtensor 1			# Calculate the g-tensor 
| 16>  maxiter 300			# max. number of iterations
| 17>  Tol 1e-8			# g-tensor convergence
| 18>  ori CenterOfElCharge		# origin for magnetic properties
| 19>  printlevel 2			# detailed information
| 20> END
| 21> 
| 22> * XYZFILE 0 3 hexacene_opt.xyz 		# Coordinates
| 23> 
| 24> 
| 25>                          ****END OF INPUT****
================================================================================

                       ****************************
                       * Single Point Calculation *
                       ****************************

---------------------------------
CARTESIAN COORDINATES (ANGSTROEM)
---------------------------------
  C      0.095116   -0.742277   -0.005785
  C     -1.118518   -1.423168   -0.013340
  H     -1.113006   -2.507614   -0.027219
  C      1.318776   -1.404966   -0.014769
  H      1.329444   -2.489360   -0.029701
  C      2.562084   -0.714903   -0.004151
  C      3.772548   -1.379377   -0.011575
  H      3.783546   -2.464240   -0.026775
  C      5.001681   -0.686305    0.000474
  C      6.244804   -1.360607   -0.006452
  H      6.248516   -2.444447   -0.021695
  C      7.421655   -0.662088    0.005962
  H      8.366404   -1.189817    0.000588
  C      7.411154    0.748702    0.025914
  H      8.347942    1.290377    0.035618
  C      6.224033    1.429704    0.032982
  H      6.211605    2.513479    0.048276
  C      4.991080    0.737049    0.020582
  C      3.751758    1.411812    0.027604
  H      3.746588    2.496718    0.042808
  C      2.551317    0.729438    0.015874
  C     -2.371984   -0.751732   -0.002590
  C     -3.572392   -1.434233   -0.006375
  H     -3.567200   -2.519182   -0.018098
  C     -4.811728   -0.759562    0.005038
  C     -6.044638   -1.452392    0.003728
  H     -6.032171   -2.536230   -0.006033
  C     -7.231779   -0.771487    0.014982
  H     -8.168536   -1.313303    0.014435
  C     -7.242343    0.639388    0.027489
  H     -8.187110    1.167047    0.035803
  C     -6.065527    1.338078    0.029299
  H     -6.069280    2.421982    0.038994
  C     -4.822374    0.663866    0.018859
  C     -3.593263    1.357077    0.022796
  H     -3.604285    2.441988    0.034014
  C     -2.382771    0.692655    0.013653
  C     -1.139469    1.382779    0.020803
  H     -1.795451    2.245992    0.049106
  C      0.084206    0.720080    0.013060
  C     -0.662237    1.863233   -0.256440
  H     -1.724117    1.862028   -0.035850

----------------------------
CARTESIAN COORDINATES (A.U.)
----------------------------
  NO LB      ZA    FRAG     MASS         X           Y           Z
   0 C     6.0000    0    12.011    0.179743   -1.402700   -0.010933
   1 C     6.0000    0    12.011   -2.113693   -2.689398   -0.025208
   2 H     1.0000    0     1.008   -2.103276   -4.738704   -0.051436
   3 C     6.0000    0    12.011    2.492126   -2.655001   -0.027910
   4 H     1.0000    0     1.008    2.512284   -4.704208   -0.056127
   5 C     6.0000    0    12.011    4.841636   -1.350971   -0.007845
   6 C     6.0000    0    12.011    7.129082   -2.606645   -0.021874
   7 H     1.0000    0     1.008    7.149866   -4.656739   -0.050598
   8 C     6.0000    0    12.011    9.451807   -1.296928    0.000896
   9 C     6.0000    0    12.011   11.800969   -2.571174   -0.012192
  10 H     1.0000    0     1.008   11.807983   -4.619336   -0.040997
  11 C     6.0000    0    12.011   14.024895   -1.251165    0.011267
  12 H     1.0000    0     1.008   15.810213   -2.248429    0.001111
  13 C     6.0000    0    12.011   14.005051    1.414842    0.048969
  14 H     1.0000    0     1.008   15.775324    2.438460    0.067309
  15 C     6.0000    0    12.011   11.761718    2.701748    0.062328
  16 H     1.0000    0     1.008   11.738233    4.749786    0.091229
  17 C     6.0000    0    12.011    9.431774    1.392821    0.038895
  18 C     6.0000    0    12.011    7.089794    2.667937    0.052163
  19 H     1.0000    0     1.008    7.080024    4.718113    0.080895
  20 C     6.0000    0    12.011    4.821290    1.378437    0.029998
  21 C     6.0000    0    12.011   -4.482400   -1.420568   -0.004894
  22 C     6.0000    0    12.011   -6.750843   -2.710308   -0.012048
  23 H     1.0000    0     1.008   -6.741031   -4.760565   -0.034200
  24 C     6.0000    0    12.011   -9.092849   -1.435363    0.009520
  25 C     6.0000    0    12.011  -11.422711   -2.744623    0.007045
  26 H     1.0000    0     1.008  -11.399150   -4.792781   -0.011400
  27 C     6.0000    0    12.011  -13.666082   -1.457900    0.028312
  28 H     1.0000    0     1.008  -15.436297   -2.481783    0.027278
  29 C     6.0000    0    12.011  -13.686044    1.208268    0.051946
  30 H     1.0000    0     1.008  -15.471396    2.205400    0.067657
  31 C     6.0000    0    12.011  -11.462185    2.528601    0.055367
  32 H     1.0000    0     1.008  -11.469276    4.576883    0.073688
  33 C     6.0000    0    12.011   -9.112967    1.254525    0.035637
  34 C     6.0000    0    12.011   -6.790284    2.564504    0.043078
  35 H     1.0000    0     1.008   -6.811112    4.614689    0.064277
  36 C     6.0000    0    12.011   -4.502784    1.308929    0.025801
  37 C     6.0000    0    12.011   -2.153285    2.613074    0.039312
  38 H     1.0000    0     1.008   -3.392911    4.244309    0.092796
  39 C     6.0000    0    12.011    0.159127    1.360754    0.024680
  40 C     6.0000    0    12.011   -1.251447    3.521000   -0.484601
  41 H     1.0000    0     1.008   -3.258108    3.518722   -0.067748

--------------------------------
INTERNAL COORDINATES (ANGSTROEM)
--------------------------------
 C      0   0   0     0.000000000000     0.00000000     0.00000000
 C      1   0   0     1.391609999913     0.00000000     0.00000000
 H      2   1   0     1.084549000066   119.00418200     0.00000000
 C      1   2   3     1.391611000025   122.26406800   359.96785500
 H      4   1   2     1.084548999986   119.00409000     0.09555201
 C      4   1   2     1.422010000027   122.52538300   180.14198200
 C      6   4   1     1.380871000026   122.20031400   179.92191700
 H      7   6   4     1.085024999985   119.34637700     0.04806500
 C      7   6   4     1.411120999935   121.81348300   180.06724900
 C      9   7   6     1.414244000031   122.10148001   179.97214000
 H     10   9   7     1.083954000086   118.67379999     0.00000000
 C     10   9   7     1.368597999951   120.82746101   180.01907600
 H     12  10   9     1.082163999957   120.11665900   179.99351001
 C     12  10   9     1.410970000040   120.26853600     0.00000000
 H     14  12  10     1.082163999921   119.61495000   179.99837100
 C     14  12  10     1.368601000092   120.26862100     0.00000000
 H     16  14  12     1.083953999962   120.49911900   180.00143600
 C     16  14  12     1.414247999943   120.82747300     0.00000000
 C     18  16  14     1.411124999975   122.10202400   179.99271600
 H     19  18  16     1.085025000072   118.84067900     0.00000000
 C     19  18  16     1.380880000021   121.81339900   180.02231500
 C      2   1   3     1.422011999997   122.52535500   179.95388200
 C     22   2   1     1.380870000001   122.20038501   180.18671400
 H     23  22   2     1.085025000073   119.34644700     0.00000000
 C     23  22   2     1.411121999974   121.81344800   179.96800800
 C     25  23  22     1.414243000069   122.10156600   180.11899499
 H     26  25  23     1.083953999992   118.67387800     0.00000000
 C     26  25  23     1.368597999982   120.82746900   179.99999915
 H     28  26  25     1.082164000022   120.11656900   180.03615100
 C     28  26  25     1.410970000022   120.26854400     0.02988100
 H     30  28  26     1.082164000019   119.61491700   179.96853500
 C     30  28  26     1.368599999970   120.26859200   359.95954300
 H     32  30  28     1.083954000041   120.49920700   180.00633999
 C     32  30  28     1.414248999967   120.82747300     0.00000000
 C     34  32  30     1.411123999959   122.10198700   180.11341999
 H     35  34  32     1.085025000011   118.84074600     0.00000000
 C     35  34  32     1.380880999984   121.81336900   179.94597900
 C     37  35  34     1.422013000050   122.20125600   180.15590500
 H     38  37  35     1.084550000072    81.81167997     0.92251234
 C     38  37  35     1.391621999923   122.52515600   179.93206900
 C     38  37  35     0.731744023820   152.49458951   303.26636314
 H     39  38  37     0.399668044228    28.58049806   337.14258404

---------------------------
INTERNAL COORDINATES (A.U.)
---------------------------
 C      0   0   0     0.000000000000     0.00000000     0.00000000
 C      1   0   0     2.629761785061     0.00000000     0.00000000
 H      2   1   0     2.049500588942   119.00418200     0.00000000
 C      1   2   3     2.629763675000   122.26406800   359.96785500
 H      4   1   2     2.049500588792   119.00409000     0.09555201
 C      4   1   2     2.687209459749   122.52538300   180.14198200
 C      6   4   1     2.609468016322   122.20031400   179.92191700
 H      7   6   4     2.050400098430   119.34637700     0.04806500
 C      7   6   4     2.666632231702   121.81348300   180.06724900
 C      9   7   6     2.672533846599   122.10148001   179.97214000
 H     10   9   7     2.048376201932   118.67379999     0.00000000
 C     10   9   7     2.586275407339   120.82746101   180.01907600
 H     12  10   9     2.044993591908   120.11665900   179.99351001
 C     12  10   9     2.666346883254   120.26853600     0.00000000
 H     14  12  10     2.044993591840   119.61495000   179.99837100
 C     14  12  10     2.586281076785   120.26862100     0.00000000
 H     16  14  12     2.048376201697   120.49911900   180.00143600
 C     16  14  12     2.672541405338   120.82747300     0.00000000
 C     18  16  14     2.666639790682   122.10202400   179.99271600
 H     19  18  16     2.050400098594   118.84067900     0.00000000
 C     19  18  16     2.609485023848   121.81339900   180.02231500
 C      2   1   3     2.687213239144   122.52535500   179.95388200
 C     22   2   1     2.609466126549   122.20038501   180.18671400
 H     23  22   2     2.050400098595   119.34644700     0.00000000
 C     23  22   2     2.666634121503   121.81344800   179.96800800
 C     25  23  22     2.672531956946   122.10156600   180.11899499
 H     26  25  23     2.048376201754   118.67387800     0.00000000
 C     26  25  23     2.586275407399   120.82746900   179.99999915
 H     28  26  25     2.044993592030   120.11656900   180.03615100
 C     28  26  25     2.666346883220   120.26854400     0.02988100
 H     30  28  26     2.044993592025   119.61491700   179.96853500
 C     30  28  26     2.586279186827   120.26859200   359.95954300
 H     32  30  28     2.048376201846   120.49920700   180.00633999
 C     32  30  28     2.672543295110   120.82747300     0.00000000
 C     34  32  30     2.666637900926   122.10198700   180.11341999
 H     35  34  32     2.050400098478   118.84074600     0.00000000
 C     35  34  32     2.609486913504   121.81336900   179.94597900
 C     37  35  34     2.687215128971   122.20125600   180.15590500
 H     38  37  35     2.049502478681    81.81167997     0.92251234
 C     38  37  35     2.629784461794   122.52515600   179.93206900
 C     38  37  35     1.382795805153   152.49458951   303.26636314
 H     39  38  37     0.755263148071    28.58049806   337.14258404

---------------------
BASIS SET INFORMATION
---------------------
There are 2 groups of distinct atoms

 Group   1 Type C   : 11s6p2d1f contracted to 5s3p2d1f pattern {62111/411/11/1}
 Group   2 Type H   : 5s1p contracted to 3s1p pattern {311/1}

Atom   0C    basis set group =>   1
Atom   1C    basis set group =>   1
Atom   2H    basis set group =>   2
Atom   3C    basis set group =>   1
Atom   4H    basis set group =>   2
Atom   5C    basis set group =>   1
Atom   6C    basis set group =>   1
Atom   7H    basis set group =>   2
Atom   8C    basis set group =>   1
Atom   9C    basis set group =>   1
Atom  10H    basis set group =>   2
Atom  11C    basis set group =>   1
Atom  12H    basis set group =>   2
Atom  13C    basis set group =>   1
Atom  14H    basis set group =>   2
Atom  15C    basis set group =>   1
Atom  16H    basis set group =>   2
Atom  17C    basis set group =>   1
Atom  18C    basis set group =>   1
Atom  19H    basis set group =>   2
Atom  20C    basis set group =>   1
Atom  21C    basis set group =>   1
Atom  22C    basis set group =>   1
Atom  23H    basis set group =>   2
Atom  24C    basis set group =>   1
Atom  25C    basis set group =>   1
Atom  26H    basis set group =>   2
Atom  27C    basis set group =>   1
Atom  28H    basis set group =>   2
Atom  29C    basis set group =>   1
Atom  30H    basis set group =>   2
Atom  31C    basis set group =>   1
Atom  32H    basis set group =>   2
Atom  33C    basis set group =>   1
Atom  34C    basis set group =>   1
Atom  35H    basis set group =>   2
Atom  36C    basis set group =>   1
Atom  37C    basis set group =>   1
Atom  38H    basis set group =>   2
Atom  39C    basis set group =>   1
Atom  40C    basis set group =>   1
Atom  41H    basis set group =>   2
---------------------------------
AUXILIARY/J BASIS SET INFORMATION
---------------------------------
There are 2 groups of distinct atoms

 Group   1 Type C   : 12s5p4d2f1g contracted to 6s4p3d1f1g pattern {711111/2111/211/2/1}
 Group   2 Type H   : 5s2p1d contracted to 3s1p1d pattern {311/2/1}

Atom   0C    basis set group =>   1
Atom   1C    basis set group =>   1
Atom   2H    basis set group =>   2
Atom   3C    basis set group =>   1
Atom   4H    basis set group =>   2
Atom   5C    basis set group =>   1
Atom   6C    basis set group =>   1
Atom   7H    basis set group =>   2
Atom   8C    basis set group =>   1
Atom   9C    basis set group =>   1
Atom  10H    basis set group =>   2
Atom  11C    basis set group =>   1
Atom  12H    basis set group =>   2
Atom  13C    basis set group =>   1
Atom  14H    basis set group =>   2
Atom  15C    basis set group =>   1
Atom  16H    basis set group =>   2
Atom  17C    basis set group =>   1
Atom  18C    basis set group =>   1
Atom  19H    basis set group =>   2
Atom  20C    basis set group =>   1
Atom  21C    basis set group =>   1
Atom  22C    basis set group =>   1
Atom  23H    basis set group =>   2
Atom  24C    basis set group =>   1
Atom  25C    basis set group =>   1
Atom  26H    basis set group =>   2
Atom  27C    basis set group =>   1
Atom  28H    basis set group =>   2
Atom  29C    basis set group =>   1
Atom  30H    basis set group =>   2
Atom  31C    basis set group =>   1
Atom  32H    basis set group =>   2
Atom  33C    basis set group =>   1
Atom  34C    basis set group =>   1
Atom  35H    basis set group =>   2
Atom  36C    basis set group =>   1
Atom  37C    basis set group =>   1
Atom  38H    basis set group =>   2
Atom  39C    basis set group =>   1
Atom  40C    basis set group =>   1
Atom  41H    basis set group =>   2
------------------------------------------------------------------------------
                           ORCA GTO INTEGRAL CALCULATION
                           -- RI-GTO INTEGRALS CHOSEN --
------------------------------------------------------------------------------
------------------------------------------------------------------------------
                   ___                                                        
                  /   \      - P O W E R E D   B Y -                         
                 /     \                                                     
                 |  |  |   _    _      __       _____    __    __             
                 |  |  |  | |  | |    /  \     |  _  \  |  |  /  |          
                  \  \/   | |  | |   /    \    | | | |  |  | /  /          
                 / \  \   | |__| |  /  /\  \   | |_| |  |  |/  /          
                |  |  |   |  __  | /  /__\  \  |    /   |      \           
                |  |  |   | |  | | |   __   |  |    \   |  |\   \          
                \     /   | |  | | |  |  |  |  | |\  \  |  | \   \       
                 \___/    |_|  |_| |__|  |__|  |_| \__\ |__|  \__/        
                                                                              
                      - O R C A' S   B I G   F R I E N D -                    
                                      &                                       
                       - I N T E G R A L  F E E D E R -                       
                                                                              
 v1 FN, 2020, v2 2021                                                         
------------------------------------------------------------------------------


Reading SHARK input file hexacene_opt_orca_dft.SHARKINP.tmp ... ok
----------------------
SHARK INTEGRAL PACKAGE
----------------------

Number of atoms                             ...     42
Number of basis functions                   ...    902
Number of shells                            ...    350
Maximum angular momentum                    ...      3
Integral batch strategy                     ... SHARK/LIBINT Hybrid
RI-J (if used) integral strategy            ... SPLIT-RIJ (Revised 2003 algorithm where possible)
Printlevel                                  ...      1
Contraction scheme used                     ... SEGMENTED contraction
Coulomb Range Separation                    ... NOT USED
Exchange Range Separation                   ... NOT USED
Finite Nucleus Model                        ... NOT USED
Auxiliary Coulomb fitting basis             ... AVAILABLE
   # of basis functions in Aux-J            ...   1450
   # of shells in Aux-J                     ...    470
   Maximum angular momentum in Aux-J        ...      4
Auxiliary J/K fitting basis                 ... NOT available
Auxiliary Correlation fitting basis         ... NOT available
Auxiliary 'external' fitting basis          ... NOT available
Integral threshold                          ...     1.000000e-10
Primitive cut-off                           ...     1.000000e-11
Primitive pair pre-selection threshold      ...     1.000000e-11

Calculating pre-screening integrals         ... done (  0.4 sec) Dimension = 350
Organizing shell pair data                  ... done (  0.3 sec)
Shell pair information
Total number of shell pairs                 ...     61425
Shell pairs after pre-screening             ...     36319
Total number of primitive shell pairs       ...    190656
Primitive shell pairs kept                  ...     74992
          la=0 lb=0:   8862 shell pairs
          la=1 lb=0:  10430 shell pairs
          la=1 lb=1:   3018 shell pairs
          la=2 lb=0:   5307 shell pairs
          la=2 lb=1:   3059 shell pairs
          la=2 lb=2:    794 shell pairs
          la=3 lb=0:   2471 shell pairs
          la=3 lb=1:   1454 shell pairs
          la=3 lb=2:    736 shell pairs
          la=3 lb=3:    188 shell pairs

Calculating one electron integrals          ... done (  0.4 sec)
Calculating RI/J V-Matrix + Cholesky decomp.... done (  0.1 sec)
Calculating Nuclear repulsion               ... done (  0.0 sec) ENN=   1921.607067303946 Eh

SHARK setup successfully completed in   3.1 seconds

Maximum memory used throughout the entire GTOINT-calculation: 500.9 MB
-------------------------------------------------------------------------------
                                 ORCA SCF
-------------------------------------------------------------------------------

------------
SCF SETTINGS
------------
Hamiltonian:
 Density Functional     Method          .... DFT(GTOs)
 Exchange Functional    Exchange        .... B88
   X-Alpha parameter    XAlpha          ....  0.666667
   Becke's b parameter  XBeta           ....  0.004200
 Correlation Functional Correlation     .... LYP
 LDA part of GGA corr.  LDAOpt          .... VWN-5
 Gradients option       PostSCFGGA      .... off
 Hybrid DFT is turned on
   Fraction HF Exchange ScalHFX         ....  0.200000
   Scaling of DF-GGA-X  ScalDFX         ....  0.720000
   Scaling of DF-GGA-C  ScalDFC         ....  0.810000
   Scaling of DF-LDA-C  ScalLDAC        ....  1.000000
   Perturbative correction              ....  0.000000
   Density functional embedding theory  .... OFF
   NL short-range parameter             ....  4.800000
 RI-approximation to the Coulomb term is turned on
   Number of AuxJ basis functions       .... 1450
   RIJ-COSX (HFX calculated with COS-X)).... on


General Settings:
 Integral files         IntName         .... hexacene_opt_orca_dft
 Hartree-Fock type      HFTyp           .... UHF
 Total Charge           Charge          ....    0
 Multiplicity           Mult            ....    3
 Number of Electrons    NEL             ....  172
 Basis Dimension        Dim             ....  902
 Nuclear Repulsion      ENuc            ....   1921.6070673039 Eh

Convergence Acceleration:
 DIIS                   CNVDIIS         .... on
   Start iteration      DIISMaxIt       ....    12
   Startup error        DIISStart       ....  0.200000
   # of expansion vecs  DIISMaxEq       ....     5
   Bias factor          DIISBfac        ....   1.050
   Max. coefficient     DIISMaxC        ....  10.000
 Trust-Rad. Augm. Hess. CNVTRAH         .... auto
   Auto Start mean grad. ratio tolernc. ....  1.125000
   Auto Start start iteration           ....    20
   Auto Start num. interpolation iter.  ....    10
   Max. Number of Micro iterations      ....    16
   Max. Number of Macro iterations      .... Maxiter - #DIIS iter
   Number of Davidson start vectors     ....     2
   Converg. threshold I  (grad. norm)   ....   5.000e-05
   Converg. threshold II (energy diff.) ....   1.000e-08
   Grad. Scal. Fac. for Micro threshold ....   0.100
   Minimum threshold for Micro iter.    ....   0.010
   NR start threshold (gradient norm)   ....   0.001
   Initial trust radius                 ....   0.400
   Minimum AH scaling param. (alpha)    ....   1.000
   Maximum AH scaling param. (alpha)    .... 1000.000
   Orbital update algorithm             .... Taylor
   White noise on init. David. guess    .... on
   Maximum white noise                  ....   0.010
   Quad. conv. algorithm                .... NR
 SOSCF                  CNVSOSCF        .... off
 Level Shifting         CNVShift        .... on
   Level shift para.    LevelShift      ....    0.2500
   Turn off err/grad.   ShiftErr        ....    0.0010
 Zerner damping         CNVZerner       .... off
 Static damping         CNVDamp         .... on
   Fraction old density DampFac         ....    0.7000
   Max. Damping (<1)    DampMax         ....    0.9800
   Min. Damping (>=0)   DampMin         ....    0.0000
   Turn off err/grad.   DampErr         ....    0.1000
 Fernandez-Rico         CNVRico         .... off

SCF Procedure:
 Maximum # iterations   MaxIter         ....   500
 SCF integral mode      SCFMode         .... Direct
   Integral package                     .... SHARK and LIBINT hybrid scheme
 Reset frequency        DirectResetFreq ....    20
 Integral Threshold     Thresh          ....  1.000e-10 Eh
 Primitive CutOff       TCut            ....  1.000e-11 Eh

Convergence Tolerance:
 Convergence Check Mode ConvCheckMode   .... Total+1el-Energy
 Convergence forced     ConvForced      .... 1
 Energy Change          TolE            ....  1.000e-08 Eh
 1-El. energy change                    ....  1.000e-05 Eh
 DIIS Error             TolErr          ....  5.000e-07


Diagonalization of the overlap matrix:
Smallest eigenvalue                        ... 4.258e-06
Time for diagonalization                   ...    0.208 sec
Threshold for overlap eigenvalues          ... 1.000e-08
Number of eigenvalues below threshold      ... 0
Time for construction of square roots      ...    0.085 sec
Total time needed                          ...    0.294 sec

Time for model grid setup =    2.011 sec

------------------------------
INITIAL GUESS: MODEL POTENTIAL
------------------------------
Loading Hartree-Fock densities                     ... done
Calculating cut-offs                               ... done
Initializing the effective Hamiltonian             ... done
Setting up the integral package (SHARK)            ... done
Starting the Coulomb interaction                   ... done (   5.7 sec)
Reading the grid                                   ... done
Mapping shells                                     ... done
Starting the XC term evaluation                    ... done (   2.9 sec)
  promolecular density results
     # of electrons  =    171.972705563
     EX              =   -139.058024694
     EC              =     -5.840744621
     EX+EC           =   -144.898769316
Transforming the Hamiltonian                       ... done (   0.1 sec)
Diagonalizing the Hamiltonian                      ... done (   0.2 sec)
Back transforming the eigenvectors                 ... done (   0.0 sec)
Now organizing SCF variables                       ... done
                      ------------------
                      INITIAL GUESS DONE (  10.9 sec)
                      ------------------
-------------------
DFT GRID GENERATION
-------------------

General Integration Accuracy     IntAcc      ... 4.388
Radial Grid Type                 RadialGrid  ... OptM3 with GC (2021)
Angular Grid (max. ang.)         AngularGrid ... 4 (Lebedev-302)
Angular grid pruning method      GridPruning ... 4 (adaptive)
Weight generation scheme         WeightScheme... Becke
Basis function cutoff            BFCut       ... 1.0000e-10
Integration weight cutoff        WCut        ... 1.0000e-14
Angular grids for H and He will be reduced by one unit
Partially contracted basis set               ... off
Rotationally invariant grid construction     ... off

Total number of grid points                  ...   205248
Total number of batches                      ...     3230
Average number of points per batch           ...       63
Average number of grid points per atom       ...     4887
Time for grid setup =    6.067 sec

--------------------
COSX GRID GENERATION
--------------------

GRIDX 1
-------
General Integration Accuracy     IntAcc      ... 3.816
Radial Grid Type                 RadialGrid  ... OptM3 with GC (2021)
Angular Grid (max. ang.)         AngularGrid ... 1 (Lebedev-50)
Angular grid pruning method      GridPruning ... 4 (adaptive)
Weight generation scheme         WeightScheme... Becke
Basis function cutoff            BFCut       ... 1.0000e-10
Integration weight cutoff        WCut        ... 1.0000e-14
Angular grids for H and He will be reduced by one unit
Partially contracted basis set               ... on
Rotationally invariant grid construction     ... off

Total number of grid points                  ...    26134
Total number of batches                      ...      425
Average number of points per batch           ...       61
Average number of grid points per atom       ...      622
UseSFitting                                  ... on

GRIDX 2
-------
General Integration Accuracy     IntAcc      ... 4.020
Radial Grid Type                 RadialGrid  ... OptM3 with GC (2021)
Angular Grid (max. ang.)         AngularGrid ... 2 (Lebedev-110)
Angular grid pruning method      GridPruning ... 4 (adaptive)
Weight generation scheme         WeightScheme... Becke
Basis function cutoff            BFCut       ... 1.0000e-10
Integration weight cutoff        WCut        ... 1.0000e-14
Angular grids for H and He will be reduced by one unit
Partially contracted basis set               ... on
Rotationally invariant grid construction     ... off

Total number of grid points                  ...    57199
Total number of batches                      ...      914
Average number of points per batch           ...       62
Average number of grid points per atom       ...     1362
UseSFitting                                  ... on

GRIDX 3
-------
General Integration Accuracy     IntAcc      ... 4.338
Radial Grid Type                 RadialGrid  ... OptM3 with GC (2021)
Angular Grid (max. ang.)         AngularGrid ... 3 (Lebedev-194)
Angular grid pruning method      GridPruning ... 4 (adaptive)
Weight generation scheme         WeightScheme... Becke
Basis function cutoff            BFCut       ... 1.0000e-10
Integration weight cutoff        WCut        ... 1.0000e-14
Angular grids for H and He will be reduced by one unit
Partially contracted basis set               ... on
Rotationally invariant grid construction     ... off

Total number of grid points                  ...   125452
Total number of batches                      ...     1983
Average number of points per batch           ...       63
Average number of grid points per atom       ...     2987
UseSFitting                                  ... on

Time for X-Grid setup             =   10.280 sec

--------------
SCF ITERATIONS
--------------
ITER       Energy         Delta-E        Max-DP      RMS-DP      [F,P]     Damp
               ***  Starting incremental Fock matrix formation  ***
  0   -996.1246053981   0.00000000000015.85587069  0.02028702  0.2302737 0.7000
  1   -996.7091836051  -0.584578206994 2.89706557  0.00359219  0.0636414 0.7000
                               ***Turning on DIIS***
  2   -996.8376240994  -0.12844049432711.12234396  0.01493174  0.0415306 0.0000
  3   -997.3098519507  -0.472227851282 3.61666912  0.00468767  0.0567754 0.0000
  4   -997.4079323703  -0.098080419584 0.71886000  0.00147139  0.0240811 0.0000
  5   -997.4384946541  -0.030562283865 0.61076842  0.00103248  0.0115490 0.0000
  6   -997.4482118649  -0.009717210708 0.44313242  0.00060165  0.0061890 0.0000
  7   -997.4525231667  -0.004311301882 0.31515056  0.00042561  0.0045091 0.0000
  8   -997.4555747001  -0.003051533412 0.22040469  0.00034925  0.0042985 0.0000
  9   -997.4582077470  -0.002633046837 0.12131988  0.00026360  0.0044605 0.0000
 10   -997.4604826414  -0.002274894427 0.10310752  0.00021364  0.0041900 0.0000
 11   -997.4623215475  -0.001838906051 0.25479229  0.00034171  0.0037679 0.0000
 12   -997.4641350850  -0.001813537528 0.05356515  0.00015007  0.0038191 0.0000
 13   -997.4653853519  -0.001250266905 0.15575480  0.00022927  0.0032173 0.0000
 14   -997.4664774206  -0.001092068730 0.11919404  0.00019704  0.0029041 0.0000
 15   -997.4673861431  -0.000908722495 0.05425289  0.00013584  0.0024996 0.0000
 16   -997.4680617127  -0.000675569605 0.09780001  0.00016500  0.0021319 0.0000
 17   -997.4685594710  -0.000497758235 0.04775241  0.00008833  0.0017680 0.0000
 18   -997.4689221540  -0.000362683088 0.03211353  0.00007962  0.0015405 0.0000
 19   -997.4691662794  -0.000244125309 0.02813753  0.00010171  0.0012433 0.0000
               *** Restarting incremental Fock matrix formation ***
                                   *** Resetting DIIS ***
 20   -997.4697179685  -0.000551689125 0.15427643  0.00107169  0.0010129 0.0000
 21   -997.4698264433  -0.000108474841 0.06450061  0.00028828  0.0009395 0.0000
               *** Restarting incremental Fock matrix formation ***
                                   *** Resetting DIIS ***
 22   -997.4695571068   0.000269336514 0.26479462  0.00137956  0.0005069 0.0000
 23   -997.4697155933  -0.000158486517 0.02661514  0.00004662  0.0007652 0.0000
 24   -997.4697529211  -0.000037327746 0.02106085  0.00004922  0.0008634 0.0000

 WARNING: the maximum gradient error descreased on average only by a factor   1.1
          during the last 20 iterations

                      *** Initiating the TRAH-SCF procedure ***


TRAH GRIDX
----------

General Integration Accuracy     IntAcc      ... 3.067
Radial Grid Type                 RadialGrid  ... OptM3 with GC (2021)
Angular Grid (max. ang.)         AngularGrid ... 1 (Lebedev-50)
Angular grid pruning method      GridPruning ... 4 (adaptive)
Weight generation scheme         WeightScheme... Becke
Basis function cutoff            BFCut       ... 1.0000e-10
Integration weight cutoff        WCut        ... 1.0000e-14
Angular grids for H and He will be reduced by one unit
Partially contracted basis set               ... on
Rotationally invariant grid construction     ... off

Total number of grid points                  ...    13911
Total number of batches                      ...      245
Average number of points per batch           ...       56
Average number of grid points per atom       ...      331


TRAH GRID
---------

General Integration Accuracy     IntAcc      ... 3.467
Radial Grid Type                 RadialGrid  ... OptM3 with GC (2021)
Angular Grid (max. ang.)         AngularGrid ... 1 (Lebedev-50)
Angular grid pruning method      GridPruning ... 4 (adaptive)
Weight generation scheme         WeightScheme... Becke
Basis function cutoff            BFCut       ... 1.0000e-10
Integration weight cutoff        WCut        ... 1.0000e-14
Angular grids for H and He will be reduced by one unit
Partially contracted basis set               ... off
Rotationally invariant grid construction     ... off

Total number of grid points                  ...    30420
Total number of batches                      ...      490
Average number of points per batch           ...       62
Average number of grid points per atom       ...      724

 --------------------------------------------------------------------------------------------
   Iter.        energy            ||Error||_2        Shift      TRadius  Mac/Mic        Rej.
 --------------------------------------------------------------------------------------------
    0       -997.469792869958     3.801964e-03                     0.400 (TRAH MAcro)   No
    0     dE    -8.137365e-06     5.679910e-03    -8.1373e-06      0.002 (TRAH MIcro)
    0     dE    -2.023323e-03     2.750004e-02    -1.5194e-02      0.303 (TRAH MIcro)
    0     dE    -3.471047e-03     1.129583e-02    -1.8665e-02      0.380 (TRAH MIcro)
    0     dE    -4.091417e-03     1.123243e-02    -2.0464e-02      0.400 (TRAH MIcro)
    0     dE    -4.170770e-03     4.020121e-03    -2.0990e-02      0.400 (TRAH MIcro)
    0     dE    -4.181681e-03     2.256171e-03    -2.1062e-02      0.400 (TRAH MIcro)
    0     dE    -4.186345e-03     1.470922e-03    -2.1102e-02      0.400 (TRAH MIcro)
    0     dE    -4.187822e-03     7.710383e-04    -2.1115e-02      0.400 (TRAH MIcro)
    0     dE    -4.188203e-03     4.054769e-04    -2.1118e-02      0.400 (TRAH MIcro)
    0     dE    -4.188315e-03     2.557555e-04    -2.1120e-02      0.400 (TRAH MIcro)
    1       -997.471726496839     1.371880e-02                     0.400 (TRAH MAcro)   No
    1     dE    -8.138029e-05     1.722145e-02    -8.1377e-05      0.006 (TRAH MIcro)
    1     dE    -5.098861e-04     1.136699e-02    -5.0719e-04      0.073 (TRAH MIcro)
    1     dE    -5.988514e-04     8.972493e-03    -5.9394e-04      0.091 (TRAH MIcro)
    1     dE    -7.608954e-04     8.792830e-03    -7.4650e-04      0.139 (TRAH MIcro)
    1     dE    -8.302808e-04     5.301872e-03    -8.0878e-04      0.163 (TRAH MIcro)
    1     dE    -8.602000e-04     3.479752e-03    -8.3450e-04      0.175 (TRAH MIcro)
    1     dE    -8.755283e-04     2.530364e-03    -8.4733e-04      0.182 (TRAH MIcro)
    1     dE    -8.812293e-04     1.523961e-03    -8.5191e-04      0.186 (TRAH MIcro)
    1     dE    -8.838109e-04     9.080371e-04    -8.5391e-04      0.187 (TRAH MIcro)
    2       -997.472499315410     4.775178e-03                     0.480 (TRAH MAcro)   No
    2     dE    -6.951138e-06     5.815597e-03    -6.9511e-06      0.001 (TRAH MIcro)
    2     dE    -2.278009e-05     2.858615e-03    -2.2778e-05      0.009 (TRAH MIcro)
    2     dE    -3.072223e-05     2.720156e-03    -3.0716e-05      0.014 (TRAH MIcro)
    2     dE    -3.430455e-05     1.350702e-03    -3.4293e-05      0.019 (TRAH MIcro)
    2     dE    -3.602129e-05     9.826404e-04    -3.6005e-05      0.021 (TRAH MIcro)
    2     dE    -3.688027e-05     6.248309e-04    -3.6860e-05      0.023 (TRAH MIcro)
    2     dE    -3.715421e-05     3.507105e-04    -3.7133e-05      0.024 (TRAH MIcro)
    3       -997.472537179977     3.674574e-04                           (NR   MAcro)
    3     dE    -1.043158e-07     2.408748e-04                           (NR   MIcro)
    3     dE    -1.913652e-07     2.207090e-04                           (NR   MIcro)
    3     dE    -2.359054e-07     1.755833e-04                           (NR   MIcro)
    3     dE    -2.660397e-07     1.438794e-04                           (NR   MIcro)
    3     dE    -2.825204e-07     7.096553e-05                           (NR   MIcro)
    3     dE    -2.855210e-07     3.029995e-05                           (NR   MIcro)
    3     dE    -2.867463e-07     2.484996e-05                           (NR   MIcro)
    3     dE    -2.872384e-07     1.458533e-05                           (NR   MIcro)
    3     dE    -2.873790e-07     5.647217e-06                           (NR   MIcro)
    3     dE    -2.874018e-07     3.234532e-06                           (NR   MIcro)
    4       -997.472537481690     7.686347e-06                           (NR   MAcro)
    4     dE    -2.826263e-11     3.310183e-06                           (NR   MIcro)
    5       -997.472537481826     3.312392e-06                           (NR   MAcro)

               *****************************************************
               *                     SUCCESS                       *
               *           SCF CONVERGED AFTER  68 CYCLES          *
               *****************************************************

Old exchange energy                            =    -28.310065721 Eh
New exchange energy                            =    -28.309969665 Eh
Exchange energy change after final integration =      0.000096056 Eh
Total energy after final integration           =   -997.472441426 Eh
Final COS-X integration done in                =   347.193 sec

----------------
TOTAL SCF ENERGY
----------------

Total Energy       :         -997.47244143 Eh          -27142.60503 eV

Components:
Nuclear Repulsion  :         1921.60706730 Eh           52289.58665 eV
Electronic Energy  :        -2919.07950873 Eh          -79432.19169 eV
One Electron Energy:        -5159.86131302 Eh         -140406.96448 eV
Two Electron Energy:         2240.78180429 Eh           60974.77279 eV
Max COSX asymmetry :            0.00000166 Eh               0.00005 eV

Virial components:
Potential Energy   :        -1999.70773274 Eh          -54414.81380 eV
Kinetic Energy     :         1002.23529132 Eh           27272.20877 eV
Virial Ratio       :            1.99524777


DFT components:
N(Alpha)           :       87.000100156342 electrons
N(Beta)            :       85.000083478106 electrons
N(Total)           :      172.000183634447 electrons
E(X)               :     -112.493988190449 Eh       
E(C)               :       -6.878006432518 Eh       
E(XC)              :     -119.371994622967 Eh       
DFET-embed. en.    :        0.000000000000 Eh       

---------------
SCF CONVERGENCE
---------------

  Last Energy change         ...   -1.3551e-10  Tolerance :   1.0000e-08
  Last Orbital Gradient      ...    3.3124e-06  Tolerance :   5.0000e-05
  Last Orbital Rotation      ...    5.9859e-06

             **** THE GBW FILE WAS UPDATED (hexacene_opt_orca_dft.gbw) ****
             **** DENSITY hexacene_opt_orca_dft.scfp WAS UPDATED ****
             **** ENERGY FILE WAS UPDATED (hexacene_opt_orca_dft.en.tmp) ****
----------------------
UHF SPIN CONTAMINATION
----------------------

Warning: in a DFT calculation there is little theoretical justification to 
         calculate <S**2> as in Hartree-Fock theory. We will do it anyways
         but you should keep in mind that the values have only limited relevance

Expectation value of <S**2>     :     2.600106
Ideal value S*(S+1) for S=1.0   :     2.000000
Deviation                       :     0.600106

             **** THE GBW FILE WAS UPDATED (hexacene_opt_orca_dft.gbw) ****
             **** DENSITY hexacene_opt_orca_dft.scfp WAS UPDATED ****
----------------
ORBITAL ENERGIES
----------------
                 SPIN UP ORBITALS
  NO   OCC          E(Eh)            E(eV) 
   0   1.0000     -10.358680      -281.8740 
   1   1.0000     -10.238239      -278.5966 
   2   1.0000     -10.224543      -278.2240 
   3   1.0000     -10.217104      -278.0215 
   4   1.0000     -10.210264      -277.8354 
   5   1.0000     -10.209042      -277.8022 
   6   1.0000     -10.207700      -277.7656 
   7   1.0000     -10.207266      -277.7538 
   8   1.0000     -10.197718      -277.4940 
   9   1.0000     -10.196565      -277.4626 
  10   1.0000     -10.195098      -277.4227 
  11   1.0000     -10.195051      -277.4214 
  12   1.0000     -10.193869      -277.3893 
  13   1.0000     -10.193454      -277.3780 
  14   1.0000     -10.186036      -277.1761 
  15   1.0000     -10.176916      -276.9280 
  16   1.0000     -10.176297      -276.9111 
  17   1.0000     -10.175788      -276.8973 
  18   1.0000     -10.175446      -276.8880 
  19   1.0000     -10.173267      -276.8287 
  20   1.0000     -10.172444      -276.8063 
  21   1.0000     -10.167983      -276.6849 
  22   1.0000     -10.167455      -276.6705 
  23   1.0000     -10.165061      -276.6054 
  24   1.0000     -10.164986      -276.6033 
  25   1.0000     -10.160709      -276.4869 
  26   1.0000      -1.213787       -33.0288 
  27   1.0000      -0.974988       -26.5308 
  28   1.0000      -0.907714       -24.7001 
  29   1.0000      -0.872892       -23.7526 
  30   1.0000      -0.866342       -23.5744 
  31   1.0000      -0.836989       -22.7756 
  32   1.0000      -0.813905       -22.1475 
  33   1.0000      -0.803608       -21.8673 
  34   1.0000      -0.781667       -21.2702 
  35   1.0000      -0.767702       -20.8902 
  36   1.0000      -0.759605       -20.6699 
  37   1.0000      -0.738180       -20.0869 
  38   1.0000      -0.711357       -19.3570 
  39   1.0000      -0.692495       -18.8438 
  40   1.0000      -0.687816       -18.7164 
  41   1.0000      -0.644436       -17.5360 
  42   1.0000      -0.626561       -17.0496 
  43   1.0000      -0.617622       -16.8063 
  44   1.0000      -0.615039       -16.7361 
  45   1.0000      -0.602001       -16.3813 
  46   1.0000      -0.592282       -16.1168 
  47   1.0000      -0.589106       -16.0304 
  48   1.0000      -0.571791       -15.5592 
  49   1.0000      -0.544835       -14.8257 
  50   1.0000      -0.533184       -14.5087 
  51   1.0000      -0.507401       -13.8071 
  52   1.0000      -0.499364       -13.5884 
  53   1.0000      -0.490447       -13.3457 
  54   1.0000      -0.481054       -13.0901 
  55   1.0000      -0.474690       -12.9170 
  56   1.0000      -0.462095       -12.5742 
  57   1.0000      -0.453031       -12.3276 
  58   1.0000      -0.445334       -12.1182 
  59   1.0000      -0.440136       -11.9767 
  60   1.0000      -0.434443       -11.8218 
  61   1.0000      -0.433257       -11.7895 
  62   1.0000      -0.426751       -11.6125 
  63   1.0000      -0.412976       -11.2376 
  64   1.0000      -0.409929       -11.1547 
  65   1.0000      -0.402646       -10.9565 
  66   1.0000      -0.397821       -10.8253 
  67   1.0000      -0.392616       -10.6836 
  68   1.0000      -0.382898       -10.4192 
  69   1.0000      -0.375638       -10.2216 
  70   1.0000      -0.371785       -10.1168 
  71   1.0000      -0.362134        -9.8542 
  72   1.0000      -0.359132        -9.7725 
  73   1.0000      -0.348202        -9.4751 
  74   1.0000      -0.343275        -9.3410 
  75   1.0000      -0.330843        -9.0027 
  76   1.0000      -0.325690        -8.8625 
  77   1.0000      -0.314314        -8.5529 
  78   1.0000      -0.288759        -7.8575 
  79   1.0000      -0.284494        -7.7415 
  80   1.0000      -0.263467        -7.1693 
  81   1.0000      -0.245188        -6.6719 
  82   1.0000      -0.229752        -6.2519 
  83   1.0000      -0.219697        -5.9783 
  84   1.0000      -0.192893        -5.2489 
  85   1.0000      -0.180052        -4.8995 
  86   1.0000      -0.169264        -4.6059 
  87   0.0000      -0.085870        -2.3366 
  88   0.0000      -0.072658        -1.9771 
  89   0.0000      -0.047244        -1.2856 
  90   0.0000      -0.028789        -0.7834 
  91   0.0000      -0.011802        -0.3212 
  92   0.0000      -0.000458        -0.0125 
  93   0.0000       0.023723         0.6455 
  94   0.0000       0.036249         0.9864 
  95   0.0000       0.038641         1.0515 
  96   0.0000       0.044638         1.2147 
  97   0.0000       0.051561         1.4031 
  98   0.0000       0.058461         1.5908 
  99   0.0000       0.061125         1.6633 
 100   0.0000       0.068440         1.8624 
 101   0.0000       0.074676         2.0320 
 102   0.0000       0.077576         2.1109 
 103   0.0000       0.085222         2.3190 
 104   0.0000       0.090675         2.4674 
 105   0.0000       0.095359         2.5948 
 106   0.0000       0.098466         2.6794 
 107   0.0000       0.107454         2.9240 
 108   0.0000       0.109105         2.9689 
 109   0.0000       0.111478         3.0335 
 110   0.0000       0.116375         3.1667 
 111   0.0000       0.119477         3.2511 
 112   0.0000       0.128542         3.4978 
 113   0.0000       0.131773         3.5857 
 114   0.0000       0.136875         3.7245 
 115   0.0000       0.140801         3.8314 
 116   0.0000       0.146157         3.9771 
 117   0.0000       0.153441         4.1753 
 118   0.0000       0.156522         4.2592 
 119   0.0000       0.158703         4.3185 
 120   0.0000       0.164150         4.4668 
 121   0.0000       0.174789         4.7563 
 122   0.0000       0.178495         4.8571 
 123   0.0000       0.181222         4.9313 
 124   0.0000       0.186898         5.0857 
 125   0.0000       0.189811         5.1650 
 126   0.0000       0.193523         5.2660 
 127   0.0000       0.202912         5.5215 
 128   0.0000       0.205815         5.6005 
 129   0.0000       0.209486         5.7004 
 130   0.0000       0.212359         5.7786 
 131   0.0000       0.215199         5.8559 
 132   0.0000       0.220472         5.9993 
 133   0.0000       0.223014         6.0685 
 134   0.0000       0.228121         6.2075 
 135   0.0000       0.228786         6.2256 
 136   0.0000       0.236727         6.4417 
 137   0.0000       0.243323         6.6212 
 138   0.0000       0.246155         6.6982 
 139   0.0000       0.248972         6.7749 
 140   0.0000       0.252028         6.8580 
 141   0.0000       0.252574         6.8729 
 142   0.0000       0.254698         6.9307 
 143   0.0000       0.259199         7.0532 
 144   0.0000       0.262285         7.1371 
 145   0.0000       0.264576         7.1995 
 146   0.0000       0.272362         7.4114 
 147   0.0000       0.273205         7.4343 
 148   0.0000       0.274440         7.4679 
 149   0.0000       0.278330         7.5737 
 150   0.0000       0.282181         7.6785 
 151   0.0000       0.288170         7.8415 
 152   0.0000       0.293304         7.9812 
 153   0.0000       0.298503         8.1227 
 154   0.0000       0.300787         8.1848 
 155   0.0000       0.302495         8.2313 
 156   0.0000       0.308977         8.4077 
 157   0.0000       0.311531         8.4772 
 158   0.0000       0.314962         8.5706 
 159   0.0000       0.320004         8.7078 
 160   0.0000       0.321443         8.7469 
 161   0.0000       0.325505         8.8574 
 162   0.0000       0.327182         8.9031 
 163   0.0000       0.331098         9.0096 
 164   0.0000       0.333631         9.0786 
 165   0.0000       0.335611         9.1325 
 166   0.0000       0.343468         9.3462 
 167   0.0000       0.346324         9.4240 
 168   0.0000       0.350767         9.5448 
 169   0.0000       0.355331         9.6691 
 170   0.0000       0.358433         9.7535 
 171   0.0000       0.365430         9.9439 
 172   0.0000       0.368564        10.0291 
 173   0.0000       0.372881        10.1466 
 174   0.0000       0.376483        10.2446 
 175   0.0000       0.378385        10.2964 
 176   0.0000       0.383689        10.4407 
 177   0.0000       0.384904        10.4738 
 178   0.0000       0.390378        10.6227 
 179   0.0000       0.393762        10.7148 
 180   0.0000       0.395376        10.7587 
 181   0.0000       0.398684        10.8487 
 182   0.0000       0.403593        10.9823 
 183   0.0000       0.405741        11.0408 
 184   0.0000       0.410802        11.1785 
 185   0.0000       0.413069        11.2402 
 186   0.0000       0.418381        11.3847 
 187   0.0000       0.420529        11.4432 
 188   0.0000       0.423912        11.5352 
 189   0.0000       0.432402        11.7663 
 190   0.0000       0.433822        11.8049 
 191   0.0000       0.435647        11.8546 
 192   0.0000       0.440059        11.9746 
 193   0.0000       0.444030        12.0827 
 194   0.0000       0.448296        12.1988 
 195   0.0000       0.449020        12.2185 
 196   0.0000       0.459610        12.5066 
 197   0.0000       0.460834        12.5399 
 198   0.0000       0.467023        12.7083 
 199   0.0000       0.468288        12.7428 
 200   0.0000       0.470203        12.7949 
 201   0.0000       0.478861        13.0305 
 202   0.0000       0.485927        13.2228 
 203   0.0000       0.490804        13.3555 
 204   0.0000       0.494734        13.4624 
 205   0.0000       0.499080        13.5807 
 206   0.0000       0.502118        13.6633 
 207   0.0000       0.505089        13.7442 
 208   0.0000       0.509213        13.8564 
 209   0.0000       0.512608        13.9488 
 210   0.0000       0.521130        14.1807 
 211   0.0000       0.521948        14.2029 
 212   0.0000       0.528782        14.3889 
 213   0.0000       0.530625        14.4390 
 214   0.0000       0.536847        14.6084 
 215   0.0000       0.539889        14.6911 
 216   0.0000       0.544388        14.8136 
 217   0.0000       0.551723        15.0131 
 218   0.0000       0.552560        15.0359 
 219   0.0000       0.562188        15.2979 
 220   0.0000       0.566714        15.4211 
 221   0.0000       0.572979        15.5916 
 222   0.0000       0.578547        15.7431 
 223   0.0000       0.587444        15.9852 
 224   0.0000       0.593270        16.1437 
 225   0.0000       0.602065        16.3830 
 226   0.0000       0.603708        16.4277 
 227   0.0000       0.611879        16.6501 
 228   0.0000       0.621672        16.9166 
 229   0.0000       0.626245        17.0410 
 230   0.0000       0.630286        17.1509 
 231   0.0000       0.631432        17.1821 
 232   0.0000       0.634052        17.2534 
 233   0.0000       0.637547        17.3485 
 234   0.0000       0.650189        17.6925 
 235   0.0000       0.652601        17.7582 
 236   0.0000       0.657426        17.8895 
 237   0.0000       0.660591        17.9756 
 238   0.0000       0.666908        18.1475 
 239   0.0000       0.670098        18.2343 
 240   0.0000       0.676896        18.4193 
 241   0.0000       0.683395        18.5961 
 242   0.0000       0.687902        18.7188 
 243   0.0000       0.689907        18.7733 
 244   0.0000       0.692821        18.8526 
 245   0.0000       0.698247        19.0003 
 246   0.0000       0.700658        19.0659 
 247   0.0000       0.705089        19.1864 
 248   0.0000       0.708725        19.2854 
 249   0.0000       0.713557        19.4169 
 250   0.0000       0.719147        19.5690 
 251   0.0000       0.721208        19.6251 
 252   0.0000       0.727455        19.7951 
 253   0.0000       0.732707        19.9380 
 254   0.0000       0.737589        20.0708 
 255   0.0000       0.743160        20.2224 
 256   0.0000       0.744308        20.2537 
 257   0.0000       0.749820        20.4036 
 258   0.0000       0.754161        20.5218 
 259   0.0000       0.757022        20.5996 
 260   0.0000       0.761962        20.7341 
 261   0.0000       0.764893        20.8138 
 262   0.0000       0.769818        20.9478 
 263   0.0000       0.770129        20.9563 
 264   0.0000       0.776866        21.1396 
 265   0.0000       0.778187        21.1756 
 266   0.0000       0.781669        21.2703 
 267   0.0000       0.791366        21.5342 
 268   0.0000       0.794803        21.6277 
 269   0.0000       0.803209        21.8564 
 270   0.0000       0.807993        21.9866 
 271   0.0000       0.813601        22.1392 
 272   0.0000       0.817063        22.2334 
 273   0.0000       0.821490        22.3539 
 274   0.0000       0.824713        22.4416 
 275   0.0000       0.834764        22.7151 
 276   0.0000       0.837130        22.7795 
 277   0.0000       0.842301        22.9202 
 278   0.0000       0.848904        23.0999 
 279   0.0000       0.854235        23.2449 
 280   0.0000       0.856556        23.3081 
 281   0.0000       0.859138        23.3783 
 282   0.0000       0.869255        23.6536 
 283   0.0000       0.874352        23.7923 
 284   0.0000       0.881208        23.9789 
 285   0.0000       0.888392        24.1744 
 286   0.0000       0.894006        24.3271 
 287   0.0000       0.897372        24.4187 
 288   0.0000       0.900314        24.4988 
 289   0.0000       0.907424        24.6923 
 290   0.0000       0.911154        24.7938 
 291   0.0000       0.918633        24.9973 
 292   0.0000       0.925763        25.1913 
 293   0.0000       0.937811        25.5191 
 294   0.0000       0.941518        25.6200 
 295   0.0000       0.948908        25.8211 
 296   0.0000       0.954155        25.9639 
 297   0.0000       0.956318        26.0227 
 298   0.0000       0.971401        26.4332 
 299   0.0000       0.973769        26.4976 
 300   0.0000       0.980936        26.6926 
 301   0.0000       0.987843        26.8806 
 302   0.0000       0.993380        27.0313 
 303   0.0000       0.997219        27.1357 
 304   0.0000       1.007901        27.4264 
 305   0.0000       1.015305        27.6279 
 306   0.0000       1.019231        27.7347 
 307   0.0000       1.026181        27.9238 
 308   0.0000       1.042615        28.3710 
 309   0.0000       1.048673        28.5358 
 310   0.0000       1.056780        28.7564 
 311   0.0000       1.062829        28.9211 
 312   0.0000       1.071196        29.1487 
 313   0.0000       1.080890        29.4125 
 314   0.0000       1.090611        29.6770 
 315   0.0000       1.094064        29.7710 
 316   0.0000       1.099333        29.9144 
 317   0.0000       1.105230        30.0748 
 318   0.0000       1.107930        30.1483 
 319   0.0000       1.123480        30.5714 
 320   0.0000       1.129377        30.7319 
 321   0.0000       1.131512        30.7900 
 322   0.0000       1.136616        30.9289 
 323   0.0000       1.140656        31.0388 
 324   0.0000       1.150819        31.3154 
 325   0.0000       1.164193        31.6793 
 326   0.0000       1.167353        31.7653 
 327   0.0000       1.178068        32.0569 
 328   0.0000       1.181539        32.1513 
 329   0.0000       1.186227        32.2789 
 330   0.0000       1.193468        32.4759 
 331   0.0000       1.194315        32.4990 
 332   0.0000       1.203100        32.7380 
 333   0.0000       1.213327        33.0163 
 334   0.0000       1.216239        33.0955 
 335   0.0000       1.225763        33.3547 
 336   0.0000       1.227888        33.4125 
 337   0.0000       1.233730        33.5715 
 338   0.0000       1.237279        33.6681 
 339   0.0000       1.244525        33.8653 
 340   0.0000       1.249969        34.0134 
 341   0.0000       1.250884        34.0383 
 342   0.0000       1.261300        34.3217 
 343   0.0000       1.266700        34.4687 
 344   0.0000       1.268084        34.5063 
 345   0.0000       1.276287        34.7295 
 346   0.0000       1.279299        34.8115 
 347   0.0000       1.285353        34.9762 
 348   0.0000       1.288744        35.0685 
 349   0.0000       1.302366        35.4392 
 350   0.0000       1.314637        35.7731 
 351   0.0000       1.320053        35.9205 
 352   0.0000       1.327114        36.1126 
 353   0.0000       1.329162        36.1683 
 354   0.0000       1.339320        36.4447 
 355   0.0000       1.342384        36.5281 
 356   0.0000       1.356738        36.9187 
 357   0.0000       1.363362        37.0990 
 358   0.0000       1.365328        37.1525 
 359   0.0000       1.372342        37.3433 
 360   0.0000       1.374737        37.4085 
 361   0.0000       1.384427        37.6722 
 362   0.0000       1.391454        37.8634 
 363   0.0000       1.393614        37.9222 
 364   0.0000       1.403119        38.1808 
 365   0.0000       1.403700        38.1966 
 366   0.0000       1.410586        38.3840 
 367   0.0000       1.416589        38.5473 
 368   0.0000       1.427433        38.8424 
 369   0.0000       1.431147        38.9435 
 370   0.0000       1.444387        39.3038 
 371   0.0000       1.446418        39.3590 
 372   0.0000       1.455001        39.5926 
 373   0.0000       1.458764        39.6950 
 374   0.0000       1.459732        39.7213 
 375   0.0000       1.466956        39.9179 
 376   0.0000       1.470231        40.0070 
 377   0.0000       1.478451        40.2307 
 378   0.0000       1.482990        40.3542 
 379   0.0000       1.489137        40.5215 
 380   0.0000       1.494490        40.6671 
 381   0.0000       1.499479        40.8029 
 382   0.0000       1.510795        41.1108 
 383   0.0000       1.513910        41.1956 
 384   0.0000       1.518615        41.3236 
 385   0.0000       1.520293        41.3693 
 386   0.0000       1.529230        41.6125 
 387   0.0000       1.533780        41.7363 
 388   0.0000       1.537158        41.8282 
 389   0.0000       1.541871        41.9564 
 390   0.0000       1.545480        42.0546 
 391   0.0000       1.556673        42.3592 
 392   0.0000       1.559415        42.4338 
 393   0.0000       1.564911        42.5834 
 394   0.0000       1.566815        42.6352 
 395   0.0000       1.575147        42.8619 
 396   0.0000       1.581109        43.0242 
 397   0.0000       1.582922        43.0735 
 398   0.0000       1.585239        43.1365 
 399   0.0000       1.599373        43.5212 
 400   0.0000       1.602587        43.6086 
 401   0.0000       1.612036        43.8657 
 402   0.0000       1.618533        44.0425 
 403   0.0000       1.624365        44.2012 
 404   0.0000       1.632175        44.4137 
 405   0.0000       1.632585        44.4249 
 406   0.0000       1.636668        44.5360 
 407   0.0000       1.646197        44.7953 
 408   0.0000       1.650156        44.9030 
 409   0.0000       1.660213        45.1767 
 410   0.0000       1.662906        45.2500 
 411   0.0000       1.667162        45.3658 
 412   0.0000       1.676630        45.6234 
 413   0.0000       1.684626        45.8410 
 414   0.0000       1.689738        45.9801 
 415   0.0000       1.694988        46.1230 
 416   0.0000       1.697335        46.1868 
 417   0.0000       1.701401        46.2975 
 418   0.0000       1.707574        46.4654 
 419   0.0000       1.715405        46.6786 
 420   0.0000       1.717432        46.7337 
 421   0.0000       1.726459        46.9793 
 422   0.0000       1.728483        47.0344 
 423   0.0000       1.743396        47.4402 
 424   0.0000       1.749177        47.5975 
 425   0.0000       1.765306        48.0364 
 426   0.0000       1.775771        48.3212 
 427   0.0000       1.790279        48.7160 
 428   0.0000       1.804453        49.1017 
 429   0.0000       1.814795        49.3831 
 430   0.0000       1.819721        49.5171 
 431   0.0000       1.830206        49.8024 
 432   0.0000       1.845505        50.2187 
 433   0.0000       1.850841        50.3639 
 434   0.0000       1.856569        50.5198 
 435   0.0000       1.858254        50.5657 
 436   0.0000       1.863826        50.7173 
 437   0.0000       1.878914        51.1278 
 438   0.0000       1.890642        51.4470 
 439   0.0000       1.897176        51.6248 
 440   0.0000       1.907821        51.9145 
 441   0.0000       1.918340        52.2007 
 442   0.0000       1.925912        52.4067 
 443   0.0000       1.929993        52.5178 
 444   0.0000       1.937013        52.7088 
 445   0.0000       1.948831        53.0304 
 446   0.0000       1.960644        53.3518 
 447   0.0000       1.972530        53.6753 
 448   0.0000       1.976428        53.7814 
 449   0.0000       1.987250        54.0758 
 450   0.0000       2.001087        54.4523 
 451   0.0000       2.004706        54.5508 
 452   0.0000       2.007210        54.6190 
 453   0.0000       2.015157        54.8352 
 454   0.0000       2.025216        55.1089 
 455   0.0000       2.032150        55.2976 
 456   0.0000       2.040937        55.5367 
 457   0.0000       2.050960        55.8095 
 458   0.0000       2.058881        56.0250 
 459   0.0000       2.064995        56.1914 
 460   0.0000       2.084850        56.7317 
 461   0.0000       2.091066        56.9008 
 462   0.0000       2.095347        57.0173 
 463   0.0000       2.111341        57.4525 
 464   0.0000       2.118903        57.6583 
 465   0.0000       2.122646        57.7601 
 466   0.0000       2.127659        57.8966 
 467   0.0000       2.138953        58.2039 
 468   0.0000       2.144719        58.3608 
 469   0.0000       2.157176        58.6998 
 470   0.0000       2.164042        58.8866 
 471   0.0000       2.166692        58.9587 
 472   0.0000       2.170937        59.0742 
 473   0.0000       2.178559        59.2816 
 474   0.0000       2.182105        59.3781 
 475   0.0000       2.184900        59.4542 
 476   0.0000       2.186832        59.5067 
 477   0.0000       2.197313        59.7919 
 478   0.0000       2.206174        60.0331 
 479   0.0000       2.210825        60.1596 
 480   0.0000       2.224063        60.5198 
 481   0.0000       2.232637        60.7532 
 482   0.0000       2.239915        60.9512 
 483   0.0000       2.249786        61.2198 
 484   0.0000       2.260259        61.5048 
 485   0.0000       2.268688        61.7341 
 486   0.0000       2.276226        61.9393 
 487   0.0000       2.295180        62.4550 
 488   0.0000       2.305811        62.7443 
 489   0.0000       2.313109        62.9429 
 490   0.0000       2.324447        63.2514 
 491   0.0000       2.328972        63.3745 
 492   0.0000       2.345986        63.8375 
 493   0.0000       2.346895        63.8622 
 494   0.0000       2.353791        64.0499 
 495   0.0000       2.372713        64.5648 
 496   0.0000       2.376132        64.6578 
 497   0.0000       2.391950        65.0883 
 498   0.0000       2.410004        65.5796 
 499   0.0000       2.417618        65.7867 
 500   0.0000       2.431923        66.1760 
 501   0.0000       2.438823        66.3637 
 502   0.0000       2.446535        66.5736 
 503   0.0000       2.448828        66.6360 
 504   0.0000       2.458207        66.8912 
 505   0.0000       2.466899        67.1277 
 506   0.0000       2.469427        67.1965 
 507   0.0000       2.479078        67.4591 
 508   0.0000       2.481072        67.5134 
 509   0.0000       2.486417        67.6588 
 510   0.0000       2.501340        68.0649 
 511   0.0000       2.504930        68.1626 
 512   0.0000       2.513820        68.4045 
 513   0.0000       2.528421        68.8018 
 514   0.0000       2.540780        69.1381 
 515   0.0000       2.544319        69.2344 
 516   0.0000       2.556410        69.5635 
 517   0.0000       2.565462        69.8098 
 518   0.0000       2.567873        69.8754 
 519   0.0000       2.580472        70.2182 
 520   0.0000       2.587337        70.4050 
 521   0.0000       2.588860        70.4465 
 522   0.0000       2.595289        70.6214 
 523   0.0000       2.600962        70.7758 
 524   0.0000       2.614234        71.1369 
 525   0.0000       2.620997        71.3210 
 526   0.0000       2.625833        71.4526 
 527   0.0000       2.635592        71.7181 
 528   0.0000       2.646042        72.0025 
 529   0.0000       2.650769        72.1311 
 530   0.0000       2.660125        72.3857 
 531   0.0000       2.662109        72.4397 
 532   0.0000       2.662738        72.4568 
 533   0.0000       2.668724        72.6197 
 534   0.0000       2.671515        72.6956 
 535   0.0000       2.676774        72.8387 
 536   0.0000       2.691628        73.2429 
 537   0.0000       2.699676        73.4619 
 538   0.0000       2.707293        73.6692 
 539   0.0000       2.708341        73.6977 
 540   0.0000       2.718732        73.9805 
 541   0.0000       2.719836        74.0105 
 542   0.0000       2.722031        74.0702 
 543   0.0000       2.735474        74.4360 
 544   0.0000       2.741041        74.5875 
 545   0.0000       2.743255        74.6478 
 546   0.0000       2.748601        74.7932 
 547   0.0000       2.755593        74.9835 
 548   0.0000       2.758765        75.0698 
 549   0.0000       2.764185        75.2173 
 550   0.0000       2.767568        75.3094 
 551   0.0000       2.773989        75.4841 
 552   0.0000       2.777617        75.5828 
 553   0.0000       2.779613        75.6371 
 554   0.0000       2.793777        76.0225 
 555   0.0000       2.795971        76.0822 
 556   0.0000       2.797962        76.1364 
 557   0.0000       2.807046        76.3836 
 558   0.0000       2.816253        76.6341 
 559   0.0000       2.818892        76.7059 
 560   0.0000       2.823749        76.8381 
 561   0.0000       2.828404        76.9648 
 562   0.0000       2.831678        77.0539 
 563   0.0000       2.835312        77.1528 
 564   0.0000       2.839657        77.2710 
 565   0.0000       2.843216        77.3678 
 566   0.0000       2.844623        77.4061 
 567   0.0000       2.846750        77.4640 
 568   0.0000       2.856670        77.7339 
 569   0.0000       2.864227        77.9396 
 570   0.0000       2.867063        78.0168 
 571   0.0000       2.868320        78.0510 
 572   0.0000       2.873539        78.1930 
 573   0.0000       2.881654        78.4138 
 574   0.0000       2.887503        78.5730 
 575   0.0000       2.891396        78.6789 
 576   0.0000       2.906349        79.0858 
 577   0.0000       2.907856        79.1268 
 578   0.0000       2.909692        79.1768 
 579   0.0000       2.915513        79.3351 
 580   0.0000       2.923480        79.5519 
 581   0.0000       2.926272        79.6279 
 582   0.0000       2.931997        79.7837 
 583   0.0000       2.935500        79.8790 
 584   0.0000       2.943046        80.0844 
 585   0.0000       2.949093        80.2489 
 586   0.0000       2.952961        80.3541 
 587   0.0000       2.957762        80.4848 
 588   0.0000       2.961925        80.5981 
 589   0.0000       2.967872        80.7599 
 590   0.0000       2.971005        80.8452 
 591   0.0000       2.978035        81.0365 
 592   0.0000       2.979399        81.0736 
 593   0.0000       2.983397        81.1824 
 594   0.0000       2.986387        81.2637 
 595   0.0000       2.993678        81.4621 
 596   0.0000       3.000145        81.6381 
 597   0.0000       3.007326        81.8335 
 598   0.0000       3.011075        81.9355 
 599   0.0000       3.013946        82.0136 
 600   0.0000       3.021303        82.2138 
 601   0.0000       3.033583        82.5480 
 602   0.0000       3.037458        82.6534 
 603   0.0000       3.040659        82.7405 
 604   0.0000       3.049863        82.9910 
 605   0.0000       3.053997        83.1035 
 606   0.0000       3.058423        83.2239 
 607   0.0000       3.065409        83.4140 
 608   0.0000       3.071796        83.5878 
 609   0.0000       3.072185        83.5984 
 610   0.0000       3.079390        83.7945 
 611   0.0000       3.087373        84.0117 
 612   0.0000       3.092531        84.1521 
 613   0.0000       3.096012        84.2468 
 614   0.0000       3.103451        84.4492 
 615   0.0000       3.106274        84.5260 
 616   0.0000       3.109996        84.6273 
 617   0.0000       3.118065        84.8469 
 618   0.0000       3.121622        84.9437 
 619   0.0000       3.133555        85.2684 
 620   0.0000       3.137534        85.3766 
 621   0.0000       3.145034        85.5807 
 622   0.0000       3.150452        85.7282 
 623   0.0000       3.154002        85.8248 
 624   0.0000       3.157760        85.9270 
 625   0.0000       3.167168        86.1830 
 626   0.0000       3.170481        86.2732 
 627   0.0000       3.174175        86.3737 
 628   0.0000       3.181399        86.5703 
 629   0.0000       3.183522        86.6280 
 630   0.0000       3.190568        86.8198 
 631   0.0000       3.196955        86.9936 
 632   0.0000       3.201543        87.1184 
 633   0.0000       3.204392        87.1959 
 634   0.0000       3.218694        87.5851 
 635   0.0000       3.223432        87.7140 
 636   0.0000       3.226470        87.7967 
 637   0.0000       3.230244        87.8994 
 638   0.0000       3.236790        88.0775 
 639   0.0000       3.240126        88.1683 
 640   0.0000       3.248071        88.3845 
 641   0.0000       3.251154        88.4684 
 642   0.0000       3.258621        88.6716 
 643   0.0000       3.265843        88.8681 
 644   0.0000       3.272578        89.0514 
 645   0.0000       3.275384        89.1277 
 646   0.0000       3.277668        89.1899 
 647   0.0000       3.286392        89.4273 
 648   0.0000       3.289787        89.5196 
 649   0.0000       3.292983        89.6066 
 650   0.0000       3.304299        89.9145 
 651   0.0000       3.308677        90.0337 
 652   0.0000       3.312808        90.1461 
 653   0.0000       3.316935        90.2584 
 654   0.0000       3.325353        90.4875 
 655   0.0000       3.328530        90.5739 
 656   0.0000       3.331861        90.6646 
 657   0.0000       3.338970        90.8580 
 658   0.0000       3.343055        90.9692 
 659   0.0000       3.347793        91.0981 
 660   0.0000       3.360042        91.4314 
 661   0.0000       3.362221        91.4907 
 662   0.0000       3.366143        91.5974 
[...]
      px      :     0.000018
      py      :     0.000187
 27 C s       :    -0.000955  s :    -0.000955
      pz      :    -0.023051  p :    -0.025287
      px      :    -0.000913
      py      :    -0.001323
      dz2     :     0.000151  d :     0.011879
      dxz     :     0.003300
      dyz     :     0.007644
      dx2y2   :     0.000414
      dxy     :     0.000370
      f0      :     0.000179  f :     0.001303
      f+1     :     0.000022
      f-1     :     0.000022
      f+2     :     0.000727
      f-2     :     0.000260
      f+3     :     0.000041
      f-3     :     0.000052
 28 H s       :     0.000675  s :     0.000675
      pz      :    -0.000543  p :    -0.000678
      px      :    -0.000083
      py      :    -0.000052
 29 C s       :     0.001663  s :     0.001663
      pz      :     0.054979  p :     0.057538
      px      :     0.001212
      py      :     0.001347
      dz2     :    -0.000310  d :    -0.004434
      dxz     :    -0.000989
      dyz     :    -0.002463
      dx2y2   :    -0.000352
      dxy     :    -0.000321
      f0      :    -0.000189  f :    -0.000814
      f+1     :    -0.000055
      f-1     :    -0.000058
      f+2     :    -0.000250
      f-2     :    -0.000167
      f+3     :    -0.000038
      f-3     :    -0.000057
 30 H s       :    -0.001641  s :    -0.001641
      pz      :     0.001419  p :     0.001677
      px      :     0.000183
      py      :     0.000074
 31 C s       :    -0.001186  s :    -0.001186
      pz      :    -0.026651  p :    -0.029484
      px      :    -0.001869
      py      :    -0.000964
      dz2     :     0.000151  d :     0.013051
      dxz     :     0.011561
      dyz     :     0.000437
      dx2y2   :     0.000469
      dxy     :     0.000433
      f0      :     0.000191  f :     0.001421
      f+1     :     0.000023
      f-1     :     0.000028
      f+2     :     0.000083
      f-2     :     0.000984
      f+3     :     0.000052
      f-3     :     0.000059
 32 H s       :     0.000666  s :     0.000666
      pz      :    -0.000619  p :    -0.000782
      px      :    -0.000039
      py      :    -0.000124
 33 C s       :     0.001574  s :     0.001574
      pz      :     0.048501  p :     0.051044
      px      :     0.001440
      py      :     0.001103
      dz2     :    -0.000399  d :    -0.009589
      dxz     :    -0.003674
      dyz     :    -0.002918
      dx2y2   :    -0.001242
      dxy     :    -0.001356
      f0      :    -0.000197  f :    -0.001289
      f+1     :    -0.000059
      f-1     :    -0.000062
      f+2     :    -0.000295
      f-2     :    -0.000352
      f+3     :    -0.000244
      f-3     :    -0.000079
 34 C s       :    -0.003521  s :    -0.003521
      pz      :    -0.028560  p :    -0.040779
      px      :    -0.001979
      py      :    -0.010240
      dz2     :    -0.000302  d :     0.003792
      dxz     :     0.009481
      dyz     :     0.000316
      dx2y2   :    -0.000381
      dxy     :    -0.005322
      f0      :     0.000159  f :     0.000227
      f+1     :     0.000015
      f-1     :     0.000017
      f+2     :     0.000078
      f-2     :     0.000855
      f+3     :    -0.000694
      f-3     :    -0.000203
 35 H s       :    -0.001883  s :    -0.001883
      pz      :    -0.000735  p :    -0.004603
      px      :    -0.001970
      py      :    -0.001898
 36 C s       :    -0.011038  s :    -0.011038
      pz      :     0.035191  p :     0.000831
      px      :    -0.018022
      py      :    -0.016339
      dz2     :    -0.004487  d :    -0.006023
      dxz     :    -0.000604
      dyz     :    -0.005721
      dx2y2   :     0.004341
      dxy     :     0.000448
      f0      :    -0.000020  f :    -0.000537
      f+1     :    -0.000125
      f-1     :    -0.000112
      f+2     :    -0.000580
      f-2     :     0.000109
      f+3     :     0.000424
      f-3     :    -0.000233
 37 C s       :    -0.005202  s :    -0.005202
      pz      :     0.013747  p :    -0.017791
      px      :     0.002828
      py      :    -0.034366
      dz2     :    -0.002095  d :    -0.015863
      dxz     :     0.016229
      dyz     :     0.025985
      dx2y2   :     0.017850
      dxy     :    -0.073833
      f0      :     0.001918  f :     0.000542
      f+1     :     0.000056
      f-1     :    -0.000348
      f+2     :     0.001304
      f-2     :     0.003039
      f+3     :    -0.000402
      f-3     :    -0.005025
 38 H s       :    -0.112708  s :    -0.112708
      pz      :     0.001122  p :    -0.026974
      px      :    -0.017483
      py      :    -0.010614
 39 C s       :     0.040732  s :     0.040732
      pz      :     0.435959  p :     0.384163
      px      :    -0.084338
      py      :     0.032541
      dz2     :     0.006189  d :     0.009372
      dxz     :     0.004894
      dyz     :    -0.005380
      dx2y2   :     0.003433
      dxy     :     0.000237
      f0      :     0.000475  f :    -0.000516
      f+1     :    -0.000264
      f-1     :    -0.000306
      f+2     :    -0.000606
      f-2     :     0.000828
      f+3     :    -0.000403
      f-3     :    -0.000242
 40 C s       :    -0.003620  s :    -0.003620
      pz      :    -0.000406  p :    -0.028516
      px      :    -0.037083
      py      :     0.008973
      dz2     :    -0.002914  d :     0.037809
      dxz     :     0.020560
      dyz     :     0.013418
      dx2y2   :     0.010838
      dxy     :    -0.004093
      f0      :    -0.000421  f :     0.003363
      f+1     :     0.001098
      f-1     :     0.000282
      f+2     :     0.000963
      f-2     :     0.004205
      f+3     :     0.002740
      f-3     :    -0.005505
 41 H s       :    -0.007623  s :    -0.007623
      pz      :     0.003983  p :    -0.056164
      px      :    -0.020825
      py      :    -0.039322


                      *****************************
                      * MAYER POPULATION ANALYSIS *
                      *****************************

  NA   - Mulliken gross atomic population
  ZA   - Total nuclear charge
  QA   - Mulliken gross atomic charge
  VA   - Mayer's total valence
  BVA  - Mayer's bonded valence
  FA   - Mayer's free valence

  ATOM       NA         ZA         QA         VA         BVA        FA
  0 C      5.7051     6.0000     0.2949     3.7509     3.7270     0.0239
  1 C      6.3361     6.0000    -0.3361     3.8988     3.6898     0.2089
  2 H      0.8966     1.0000     0.1034     0.9876     0.9868     0.0008
  3 C      6.2785     6.0000    -0.2785     3.8596     3.6594     0.2002
  4 H      0.8965     1.0000     0.1035     0.9847     0.9839     0.0009
  5 C      5.6929     6.0000     0.3071     3.6062     3.5956     0.0106
  6 C      6.2885     6.0000    -0.2885     3.9031     3.8637     0.0394
  7 H      0.9137     1.0000     0.0863     0.9868     0.9868     0.0000
  8 C      5.8259     6.0000     0.1741     3.7363     3.7334     0.0029
  9 C      6.1990     6.0000    -0.1990     3.9253     3.9211     0.0042
 10 H      0.9067     1.0000     0.0933     0.9797     0.9796     0.0000
 11 C      6.1041     6.0000    -0.1041     3.9052     3.9032     0.0020
 12 H      0.8976     1.0000     0.1024     0.9693     0.9693     0.0000
 13 C      6.0981     6.0000    -0.0981     3.8995     3.8935     0.0061
 14 H      0.8957     1.0000     0.1043     0.9688     0.9687     0.0000
 15 C      6.1841     6.0000    -0.1841     3.9158     3.9134     0.0024
 16 H      0.9006     1.0000     0.0994     0.9785     0.9785     0.0000
 17 C      5.8078     6.0000     0.1922     3.6391     3.6314     0.0077
 18 C      6.3897     6.0000    -0.3897     4.0105     3.9988     0.0117
 19 H      0.9001     1.0000     0.0999     0.9751     0.9748     0.0003
 20 C      6.0302     6.0000    -0.0302     3.7867     3.4262     0.3605
 21 C      5.8477     6.0000     0.1523     3.8356     3.8280     0.0076
 22 C      6.2617     6.0000    -0.2617     3.8930     3.8573     0.0357
 23 H      0.9004     1.0000     0.0996     0.9859     0.9858     0.0001
 24 C      5.8261     6.0000     0.1739     3.7519     3.7502     0.0017
 25 C      6.1933     6.0000    -0.1933     3.9166     3.9132     0.0035
 26 H      0.8928     1.0000     0.1072     0.9779     0.9779     0.0000
 27 C      6.0910     6.0000    -0.0910     3.9107     3.9096     0.0011
 28 H      0.8840     1.0000     0.1160     0.9685     0.9685     0.0000
 29 C      6.1035     6.0000    -0.1035     3.9131     3.9078     0.0053
 30 H      0.8845     1.0000     0.1155     0.9694     0.9693     0.0000
 31 C      6.2019     6.0000    -0.2019     3.9514     3.9500     0.0014
 32 H      0.8921     1.0000     0.1079     0.9791     0.9791     0.0000
 33 C      5.8324     6.0000     0.1676     3.7661     3.7613     0.0047
 34 C      6.2199     6.0000    -0.2199     3.9147     3.9120     0.0026
 35 H      0.8803     1.0000     0.1197     1.0087     1.0086     0.0001
 36 C      6.1335     6.0000    -0.1335     3.6581     3.6505     0.0076
 37 C      4.7618     6.0000     1.2382     0.8437     0.7964     0.0473
 38 H      0.9375     1.0000     0.0625     1.1318     0.9966     0.1352
 39 C      6.1806     6.0000    -0.1806     3.9089     3.4831     0.4258
 40 C      7.4214     6.0000    -1.4214    -1.9286    -2.0006     0.0720
 41 H      0.5062     1.0000     0.4938    -0.0258    -0.0469     0.0210

  Mayer bond orders larger than 0.100000
B(  0-C ,  1-C ) :   1.2362 B(  0-C ,  3-C ) :   1.2583 B(  0-C , 39-C ) :   1.1971 
B(  1-C ,  2-H ) :   0.9755 B(  1-C , 21-C ) :   1.1768 B(  3-C ,  4-H ) :   0.9618 
B(  3-C ,  5-C ) :   1.1689 B(  5-C ,  6-C ) :   1.3353 B(  5-C , 20-C ) :   1.0980 
B(  6-C ,  7-H ) :   0.9793 B(  6-C ,  8-C ) :   1.2590 B(  8-C ,  9-C ) :   1.2044 
B(  8-C , 17-C ) :   1.2191 B(  9-C , 10-H ) :   0.9833 B(  9-C , 11-C ) :   1.5454 
B( 11-C , 12-H ) :   0.9742 B( 11-C , 13-C ) :   1.2634 B( 13-C , 14-H ) :   0.9732 
B( 13-C , 15-C ) :   1.5243 B( 15-C , 16-H ) :   0.9793 B( 15-C , 17-C ) :   1.2303 
B( 17-C , 18-C ) :   1.1063 B( 18-C , 19-H ) :   0.9981 B( 18-C , 20-C ) :   1.6935 
B( 20-C , 39-C ) :   0.3126 B( 20-C , 40-C ) :   0.1192 B( 21-C , 22-C ) :   1.3935 
B( 21-C , 36-C ) :   1.1740 B( 22-C , 23-H ) :   0.9836 B( 22-C , 24-C ) :   1.2279 
B( 24-C , 25-C ) :   1.2098 B( 24-C , 33-C ) :   1.2322 B( 25-C , 26-H ) :   0.9794 
B( 25-C , 27-C ) :   1.5375 B( 27-C , 28-H ) :   0.9694 B( 27-C , 29-C ) :   1.2691 
B( 29-C , 30-H ) :   0.9705 B( 29-C , 31-C ) :   1.5320 B( 31-C , 32-H ) :   0.9767 
B( 31-C , 33-C ) :   1.2308 B( 33-C , 34-C ) :   1.2092 B( 34-C , 35-H ) :   0.9057 
B( 34-C , 36-C ) :   1.5653 B( 34-C , 37-C ) :  -0.1090 B( 34-C , 40-C ) :   0.1340 
B( 36-C , 37-C ) :   0.7292 B( 37-C , 38-H ) :   0.1785 B( 37-C , 39-C ) :   0.8203 
B( 37-C , 40-C ) :  -1.5599 B( 37-C , 41-H ) :   0.8552 B( 38-H , 39-C ) :   0.1193 
B( 38-H , 41-H ) :   0.5831 B( 39-C , 40-C ) :   0.7935 B( 40-C , 41-H ) :  -1.5862 


-------
TIMINGS
-------

Total SCF time: 0 days 1 hours 44 min 9 sec 

Total time                  ....    6249.627 sec
Sum of individual times     ....    6238.432 sec  ( 99.8%)

Fock matrix formation       ....    6177.255 sec  ( 98.8%)
  Split-RI-J                ....     747.443 sec  ( 12.1% of F)
  Chain of spheres X        ....    4810.333 sec  ( 77.9% of F)
  XC integration            ....     617.154 sec  ( 10.0% of F)
    Basis function eval.    ....      87.021 sec  ( 14.1% of XC)
    Density eval.           ....     235.373 sec  ( 38.1% of XC)
    XC-Functional eval.     ....      13.713 sec  (  2.2% of XC)
    XC-Potential eval.      ....     264.166 sec  ( 42.8% of XC)
Diagonalization             ....      16.343 sec  (  0.3%)
Density matrix formation    ....       1.635 sec  (  0.0%)
Population analysis         ....       0.544 sec  (  0.0%)
Initial guess               ....       8.915 sec  (  0.1%)
Orbital Transformation      ....       9.621 sec  (  0.2%)
Orbital Orthonormalization  ....       0.000 sec  (  0.0%)
DIIS solution               ....       5.752 sec  (  0.1%)
Grid generation             ....      18.358 sec  (  0.3%)

Maximum memory used throughout the entire SCF-calculation: 716.6 MB

-------------------------   --------------------
FINAL SINGLE POINT ENERGY      -997.472441425814
-------------------------   --------------------

   --->>> g-tensor requested, so NeedSOC=true

                            ***************************************
                            *     ORCA property calculations      *
                            ***************************************

                                    ---------------------
                                    Active property flags
                                    ---------------------
   (+) Dipole Moment
   (+) g-tensor
   (+) Spin-Orbit Integrals are needed


------------------------------------------------------------------------------
                       ORCA ELECTRIC PROPERTIES CALCULATION
------------------------------------------------------------------------------

Dipole Moment Calculation                       ... on
Quadrupole Moment Calculation                   ... off
Polarizability Calculation                      ... off
GBWName                                         ... hexacene_opt_orca_dft.gbw
Electron density                                ... hexacene_opt_orca_dft.scfp
The origin for moment calculation is the CENTER OF MASS  = ( 0.012736,  0.005859 -0.000768)

-------------
DIPOLE MOMENT
-------------
                                X             Y             Z
Electronic contribution:      0.05395       0.03976       0.15056
Nuclear contribution   :     -2.19059      -1.00778       0.13207
                        -----------------------------------------
Total Dipole Moment    :     -2.13664      -0.96802       0.28263
                        -----------------------------------------
Magnitude (a.u.)       :      2.36266
Magnitude (Debye)      :      6.00540



--------------------
Rotational spectrum 
--------------------
 
Rotational constants in cm-1:     0.036315     0.002394     0.002247 
Rotational constants in MHz :  1088.692638    71.772143    67.349246 

 Dipole components along the rotational axes: 
x,y,z [a.u.] :    -2.137303    -0.967038     0.280938 
x,y,z [Debye]:    -5.432591    -2.458015     0.714088 

 
------------------------------------------------------------------------------
                         ORCA SPIN-ORBIT COUPLING CALCULATION
------------------------------------------------------------------------------

GBW file                                    ... hexacene_opt_orca_dft.gbw
Input density                               ... hexacene_opt_orca_dft.scfp
Output integrals                            ... hexacene_opt_orca_dft
Operator type                               ... Mean-field/Effective potential
   One-Electron Terms                       ... 1
   Coulomb Contribution                     ... 2
   Exchange Contribution                    ... 3
   Correlation Contribution                 ... 0
   Maximum number of centers                ... 4
Setting up the integration grid             ... done
Evaluating density on the grid              ... (NumEl=  172.000184) done
Evaluating Coulomb term semi-analytically   ... done
SHARK 2-electron DoJ,X=0,1 MaxCenter=1      ... done ( 32.0 sec)
Evaluating the spin-orbit operator          ... done

Maximum memory used throughout the entire SOC-calculation: 927.3 MB
Total time for SOC: 980.389
------------------------------------------------------------------------------
                                ORCA EPR/NMR CALCULATION
------------------------------------------------------------------------------

GBWName                      ... hexacene_opt_orca_dft.gbw
Electron density             ... hexacene_opt_orca_dft.scfp
Spin density                 ... hexacene_opt_orca_dft.scfr
Spin-orbit integrals         ... hexacene_opt_orca_dft
Origin for angular momentum  ... Center of electronic charge
Coordinates of the origin    ...    0.01242230    0.00562801   -0.00164318 (bohrs)
Details of the CP(SCF) procedure:
       Solver   = POPLE   
       MaxIter  =   300   
       Tolerance=    1.000e-08
       COSX Grid=     1   
       Op-0     =   0- 86 =>  87-901
       Op-1     =   0- 84 =>  85-901
Multiplicity                 ... 3
g-tensor                     ... 1
NMR chemical shifts          ... 0
NMR spin-spin couplings      ... 0
NMR spectrum                 ... 0
Forming RHS of the CP-SCF equations         ... 
Calc. angular momentum integrals (SHARK)    ... done

------------------------------------------------------------------------------
                           ORCA CP-SCF CALCULATION
------------------------------------------------------------------------------

Input orbitals are from        ... hexacene_opt_orca_dft.gbw
Input Perturbation             ... hexacene_opt_orca_dft.pin.tmp
Wavefunction output            ... hexacene_opt_orca_dft.pout.tmp
Perturbation mode              ... Imaginary perturbation
Solver                         ... POPLE
Max. number of iterations      ... 300
Convergence tolerance          ... 1.000e-08
Integral handling              ... Direct
DFT GridXC                     ... 1
COSX GridX                     ... 1
COSX IntAccX                   ... 3.067
COSX Algorithm                 ... Auto
Number of perturbations        ... 3
Number of operators            ... 2
Orbital ranges used for CP-SCF:
 Operator 0:  Orbitals   0... 86  to  87...901
 Operator 1:  Orbitals   0... 84  to  85...901
Variables per perturbation     ... 140350
DFT calculation                         ... on
XC functional terms                     ... off
Hybrid DFT                              ... on
   Exchange mixing (SCF)                ...  0.200
   Exchange mixing (CP-SCF)             ...  0.200
   GGA exch. scaling(SCF)               ...  0.720
   GGA exch. scaling (CP-SCF)           ...  0.720
   GGA corr. scaling (SCF)              ...  0.810
   GGA corr. scaling (CP-SCF)           ...  0.810

CP-SCF GRID
-----------

General Integration Accuracy     IntAcc      ... 3.467
Radial Grid Type                 RadialGrid  ... OptM3 with GC (2021)
Angular Grid (max. ang.)         AngularGrid ... 1 (Lebedev-50)
Angular grid pruning method      GridPruning ... 4 (adaptive)
Weight generation scheme         WeightScheme... Becke
Basis function cutoff            BFCut       ... 1.0000e-10
Integration weight cutoff        WCut        ... 1.0000e-14
Angular grids for H and He will be reduced by one unit
Partially contracted basis set               ... off
Rotationally invariant grid construction     ... off

Total number of grid points                  ...    30420
Total number of batches                      ...      490
Average number of points per batch           ...       62
Average number of grid points per atom       ...      724

CP-SCF GRIDX
------------

General Integration Accuracy     IntAcc      ... 3.067
Radial Grid Type                 RadialGrid  ... OptM3 with GC (2021)
Angular Grid (max. ang.)         AngularGrid ... 1 (Lebedev-50)
Angular grid pruning method      GridPruning ... 4 (adaptive)
Weight generation scheme         WeightScheme... Becke
Basis function cutoff            BFCut       ... 1.0000e-10
Integration weight cutoff        WCut        ... 1.0000e-14
Angular grids for H and He will be reduced by one unit
Partially contracted basis set               ... on
Rotationally invariant grid construction     ... off

Total number of grid points                  ...    13911
Total number of batches                      ...      245
Average number of points per batch           ...       56
Average number of grid points per atom       ...      331


ERROR - OUT OF MEMORY !!!

    MINIMUM REQUIRED:  1078.5 MB
    MAXCORE:           1024.0 MB

ORCA finished by error termination in EPR/NMR
Calling Command: orca_eprnmr hexacene_opt_orca_dft.eprnmr.inp 
[file orca_tools/qcmsg.cpp, line 465]: 
  .... aborting the run

