
                                 *****************
                                 * O   R   C   A *
                                 *****************

                                            #,                                       
                                            ###                                      
                                            ####                                     
                                            #####                                    
                                            ######                                   
                                           ########,                                 
                                     ,,################,,,,,                         
                               ,,#################################,,                 
                          ,,##########################################,,             
                       ,#########################################, ''#####,          
                    ,#############################################,,   '####,        
                  ,##################################################,,,,####,       
                ,###########''''           ''''###############################       
              ,#####''   ,,,,##########,,,,          '''####'''          '####       
            ,##' ,,,,###########################,,,                        '##       
           ' ,,###''''                  '''############,,,                           
         ,,##''                                '''############,,,,        ,,,,,,###''
      ,#''                                            '''#######################'''  
     '                                                          ''''####''''         
             ,#######,   #######,   ,#######,      ##                                
            ,#'     '#,  ##    ##  ,#'     '#,    #''#        ######   ,####,        
            ##       ##  ##   ,#'  ##            #'  '#       #        #'  '#        
            ##       ##  #######   ##           ,######,      #####,   #    #        
            '#,     ,#'  ##    ##  '#,     ,#' ,#      #,         ##   #,  ,#        
             '#######'   ##     ##  '#######'  #'      '#     #####' # '####'        



                  #######################################################
                  #                        -***-                        #
                  #          Department of theory and spectroscopy      #
                  #    Directorship and core code : Frank Neese         #
                  #        Max Planck Institute fuer Kohlenforschung    #
                  #                Kaiser Wilhelm Platz 1               #
                  #                 D-45470 Muelheim/Ruhr               #
                  #                      Germany                        #
                  #                                                     #
                  #                  All rights reserved                #
                  #                        -***-                        #
                  #######################################################


                         Program Version 5.0.3 -  RELEASE  -


 With contributions from (in alphabetic order):
   Daniel Aravena         : Magnetic Suceptibility
   Michael Atanasov       : Ab Initio Ligand Field Theory (pilot matlab implementation)
   Alexander A. Auer      : GIAO ZORA, VPT2 properties, NMR spectrum
   Ute Becker             : Parallelization
   Giovanni Bistoni       : ED, misc. LED, open-shell LED, HFLD
   Martin Brehm           : Molecular dynamics
   Dmytro Bykov           : SCF Hessian
   Vijay G. Chilkuri      : MRCI spin determinant printing, contributions to CSF-ICE
   Dipayan Datta          : RHF DLPNO-CCSD density
   Achintya Kumar Dutta   : EOM-CC, STEOM-CC
   Dmitry Ganyushin       : Spin-Orbit,Spin-Spin,Magnetic field MRCI
   Miquel Garcia          : C-PCM and meta-GGA Hessian, CC/C-PCM, Gaussian charge scheme
   Yang Guo               : DLPNO-NEVPT2, F12-NEVPT2, CIM, IAO-localization
   Andreas Hansen         : Spin unrestricted coupled pair/coupled cluster methods
   Benjamin Helmich-Paris : MC-RPA, TRAH-SCF, COSX integrals
   Lee Huntington         : MR-EOM, pCC
   Robert Izsak           : Overlap fitted RIJCOSX, COSX-SCS-MP3, EOM
   Marcus Kettner         : VPT2
   Christian Kollmar      : KDIIS, OOCD, Brueckner-CCSD(T), CCSD density, CASPT2, CASPT2-K
   Simone Kossmann        : Meta GGA functionals, TD-DFT gradient, OOMP2, MP2 Hessian
   Martin Krupicka        : Initial AUTO-CI
   Lucas Lang             : DCDCAS
   Marvin Lechner         : AUTO-CI (C++ implementation), FIC-MRCC
   Dagmar Lenk            : GEPOL surface, SMD
   Dimitrios Liakos       : Extrapolation schemes; Compound Job, initial MDCI parallelization
   Dimitrios Manganas     : Further ROCIS development; embedding schemes
   Dimitrios Pantazis     : SARC Basis sets
   Anastasios Papadopoulos: AUTO-CI, single reference methods and gradients
   Taras Petrenko         : DFT Hessian,TD-DFT gradient, ASA, ECA, R-Raman, ABS, FL, XAS/XES, NRVS
   Peter Pinski           : DLPNO-MP2, DLPNO-MP2 Gradient
   Christoph Reimann      : Effective Core Potentials
   Marius Retegan         : Local ZFS, SOC
   Christoph Riplinger    : Optimizer, TS searches, QM/MM, DLPNO-CCSD(T), (RO)-DLPNO pert. Triples
   Tobias Risthaus        : Range-separated hybrids, TD-DFT gradient, RPA, STAB
   Michael Roemelt        : Original ROCIS implementation
   Masaaki Saitow         : Open-shell DLPNO-CCSD energy and density
   Barbara Sandhoefer     : DKH picture change effects
   Avijit Sen             : IP-ROCIS
   Kantharuban Sivalingam : CASSCF convergence, NEVPT2, FIC-MRCI
   Bernardo de Souza      : ESD, SOC TD-DFT
   Georgi Stoychev        : AutoAux, RI-MP2 NMR, DLPNO-MP2 response
   Willem Van den Heuvel  : Paramagnetic NMR
   Boris Wezisla          : Elementary symmetry handling
   Frank Wennmohs         : Technical directorship


 We gratefully acknowledge several colleagues who have allowed us to
 interface, adapt or use parts of their codes:
   Stefan Grimme, W. Hujo, H. Kruse, P. Pracht,  : VdW corrections, initial TS optimization,
                  C. Bannwarth, S. Ehlert          DFT functionals, gCP, sTDA/sTD-DF
   Ed Valeev, F. Pavosevic, A. Kumar             : LibInt (2-el integral package), F12 methods
   Garnet Chan, S. Sharma, J. Yang, R. Olivares  : DMRG
   Ulf Ekstrom                                   : XCFun DFT Library
   Mihaly Kallay                                 : mrcc  (arbitrary order and MRCC methods)
   Jiri Pittner, Ondrej Demel                    : Mk-CCSD
   Frank Weinhold                                : gennbo (NPA and NBO analysis)
   Christopher J. Cramer and Donald G. Truhlar   : smd solvation model
   Lars Goerigk                                  : TD-DFT with DH, B97 family of functionals
   V. Asgeirsson, H. Jonsson                     : NEB implementation
   FAccTs GmbH                                   : IRC, NEB, NEB-TS, DLPNO-Multilevel, CI-OPT
                                                   MM, QMMM, 2- and 3-layer-ONIOM, Crystal-QMMM,
                                                   LR-CPCM, SF, NACMEs, symmetry and pop. for TD-DFT,
                                                   nearIR, NL-DFT gradient (VV10), updates on ESD,
                                                   ML-optimized integration grids
   S Lehtola, MJT Oliveira, MAL Marques          : LibXC Library
   Liviu Ungur et al                             : ANISO software


 Your calculation uses the libint2 library for the computation of 2-el integrals
 For citations please refer to: http://libint.valeyev.net

 Your ORCA version has been built with support for libXC version: 5.1.0
 For citations please refer to: https://tddft.org/programs/libxc/

 This ORCA versions uses:
   CBLAS   interface :  Fast vector & matrix operations
   LAPACKE interface :  Fast linear algebra routines
   SCALAPACK package :  Parallel linear algebra routines
   Shared memory     :  Shared parallel matrices
   BLAS/LAPACK       :  OpenBLAS 0.3.15  USE64BITINT DYNAMIC_ARCH NO_AFFINITY Haswell SINGLE_THREADED
        Core in use  :  Haswell
   Copyright (c) 2011-2014, The OpenBLAS Project




***************************************
The coordinates will be read from file: naphthalene.xyz
***************************************


================================================================================

----- Orbital basis set information -----
Your calculation utilizes the basis: def2-TZVP
   F. Weigend and R. Ahlrichs, Phys. Chem. Chem. Phys. 7, 3297 (2005).

----- AuxJ basis set information -----
Your calculation utilizes the auxiliary basis: def2/J
   F. Weigend, Phys. Chem. Chem. Phys. 8, 1057 (2006).

================================================================================
                                        WARNINGS
                       Please study these warnings very carefully!
================================================================================


WARNING: your system is open-shell and RHF/RKS was chosen
  ===> : WILL SWITCH to UHF/UKS


INFO   : the flag for use of the SHARK integral package has been found!

================================================================================
                                       INPUT FILE
================================================================================
NAME = naphthalene_orca_dft.inp
|  1> # List of keywords
|  2> !B3LYP def2-TZVP SOMF(1X) SMALLPRINT #DKH
|  3> 
|  4> %METHOD 			# DFT input block
|  5> END	
|  6> 
|  7> %SCF                            # Control of the SCF procedure
|  8>  maxiter 500                    # max. number of SCF iterations
|  9>  TolE 1e-8                      # energy change between two cycles
| 10>  TolErr 5e-7                    # DIIS error convergence
| 11>  ConvForced 1                   # 0: converg. not mandatory; 1: break if not meet convergence
| 12> END
| 13> 
| 14> %EPRNMR 			# Control of EPR and NMR calculations
| 15>  gtensor 1			# Calculate the g-tensor 
| 16>  maxiter 300			# max. number of iterations
| 17>  Tol 1e-8			# g-tensor convergence
| 18>  ori CenterOfElCharge		# origin for magnetic properties
| 19>  printlevel 2			# detailed information
| 20> END
| 21> 
| 22> * XYZFILE 0 3 naphthalene.xyz 		# Coordinates
| 23> 
| 24> 
| 25>                          ****END OF INPUT****
================================================================================

                       ****************************
                       * Single Point Calculation *
                       ****************************

---------------------------------
CARTESIAN COORDINATES (ANGSTROEM)
---------------------------------
  C      0.000000    1.362363    0.000000
  C      0.000000   -1.362363    0.000000
  C      2.337621    2.643698    0.000000
  C      4.698944    1.286319    0.000000
  C      4.698944   -1.286319    0.000000
  C      2.337621   -2.643698    0.000000
  C     -2.337621   -2.643698    0.000000
  C     -2.337621    2.643698    0.000000
  C     -4.698944    1.286319    0.000000
  C     -4.698944   -1.286319    0.000000
  H     -2.352735    4.691469    0.000000
  H     -6.455295    2.337095    0.000000
  H     -6.455295   -2.337095    0.000000
  H     -2.352735   -4.691469    0.000000
  H      2.352735    4.691469    0.000000
  H      6.455295    2.337095    0.000000
  H      6.455295   -2.337095    0.000000
  H      2.352735   -4.691469    0.000000

----------------------------
CARTESIAN COORDINATES (A.U.)
----------------------------
  NO LB      ZA    FRAG     MASS         X           Y           Z
   0 C     6.0000    0    12.011    0.000000    2.574492    0.000000
   1 C     6.0000    0    12.011    0.000000   -2.574492    0.000000
   2 C     6.0000    0    12.011    4.417463    4.995865    0.000000
   3 C     6.0000    0    12.011    8.879717    2.430791    0.000000
   4 C     6.0000    0    12.011    8.879717   -2.430791    0.000000
   5 C     6.0000    0    12.011    4.417463   -4.995865    0.000000
   6 C     6.0000    0    12.011   -4.417463   -4.995865    0.000000
   7 C     6.0000    0    12.011   -4.417463    4.995865    0.000000
   8 C     6.0000    0    12.011   -8.879717    2.430791    0.000000
   9 C     6.0000    0    12.011   -8.879717   -2.430791    0.000000
  10 H     1.0000    0     1.008   -4.446024    8.865591    0.000000
  11 H     1.0000    0     1.008  -12.198739    4.416470    0.000000
  12 H     1.0000    0     1.008  -12.198739   -4.416470    0.000000
  13 H     1.0000    0     1.008   -4.446024   -8.865591    0.000000
  14 H     1.0000    0     1.008    4.446024    8.865591    0.000000
  15 H     1.0000    0     1.008   12.198739    4.416470    0.000000
  16 H     1.0000    0     1.008   12.198739   -4.416470    0.000000
  17 H     1.0000    0     1.008    4.446024   -8.865591    0.000000

--------------------------------
INTERNAL COORDINATES (ANGSTROEM)
--------------------------------
 C      0   0   0     0.000000000000     0.00000000     0.00000000
 C      1   0   0     2.724725018265     0.00000000     0.00000000
 C      1   2   0     2.665762705822   118.72875845     0.00000000
 C      3   1   2     2.723659889960   121.37931077     0.00000000
 C      4   3   1     2.572638723397   119.89193077     0.00000000
 C      2   1   3     2.665762705822   118.72875845     0.00000000
 C      2   1   3     2.665762705822   118.72875845   180.00000000
 C      1   2   3     2.665762705822   118.72875845   180.00000000
 C      8   1   2     2.723659889960   121.37931077     0.00000000
 C      9   8   1     2.572638723397   119.89193077     0.00000000
 H      8   1   2     2.047826782126   119.15163576   180.00000121
 H      9   8   1     2.046679933709   119.21716353   180.00000085
 H     10   9   8     2.046679933709   120.89090570   180.00000000
 H      7   2   1     2.047826782126   119.15163576   180.00000121
 H      3   1   2     2.047826782126   119.15163576   180.00000121
 H      4   3   1     2.046679933709   119.21716353   180.00000085
 H      5   4   3     2.046679933709   120.89090570   180.00000000
 H      6   2   1     2.047826782126   119.15163576   180.00000121

---------------------------
INTERNAL COORDINATES (A.U.)
---------------------------
 C      0   0   0     0.000000000000     0.00000000     0.00000000
 C      1   0   0     5.148984074764     0.00000000     0.00000000
 C      1   2   0     5.037561452025   118.72875845     0.00000000
 C      3   1   2     5.146971273971   121.37931077     0.00000000
 C      4   3   1     4.861582628742   119.89193077     0.00000000
 C      2   1   3     5.037561452025   118.72875845     0.00000000
 C      2   1   3     5.037561452025   118.72875845   180.00000000
 C      1   2   3     5.037561452025   118.72875845   180.00000000
 C      8   1   2     5.146971273971   121.37931077     0.00000000
 C      9   8   1     4.861582628742   119.89193077     0.00000000
 H      8   1   2     3.869831787928   119.15163576   180.00000121
 H      9   8   1     3.867664558502   119.21716353   180.00000085
 H     10   9   8     3.867664558502   120.89090570   180.00000000
 H      7   2   1     3.869831787928   119.15163576   180.00000121
 H      3   1   2     3.869831787928   119.15163576   180.00000121
 H      4   3   1     3.867664558502   119.21716353   180.00000085
 H      5   4   3     3.867664558502   120.89090570   180.00000000
 H      6   2   1     3.869831787928   119.15163576   180.00000121

---------------------
BASIS SET INFORMATION
---------------------
There are 2 groups of distinct atoms

 Group   1 Type C   : 11s6p2d1f contracted to 5s3p2d1f pattern {62111/411/11/1}
 Group   2 Type H   : 5s1p contracted to 3s1p pattern {311/1}

Atom   0C    basis set group =>   1
Atom   1C    basis set group =>   1
Atom   2C    basis set group =>   1
Atom   3C    basis set group =>   1
Atom   4C    basis set group =>   1
Atom   5C    basis set group =>   1
Atom   6C    basis set group =>   1
Atom   7C    basis set group =>   1
Atom   8C    basis set group =>   1
Atom   9C    basis set group =>   1
Atom  10H    basis set group =>   2
Atom  11H    basis set group =>   2
Atom  12H    basis set group =>   2
Atom  13H    basis set group =>   2
Atom  14H    basis set group =>   2
Atom  15H    basis set group =>   2
Atom  16H    basis set group =>   2
Atom  17H    basis set group =>   2
---------------------------------
AUXILIARY/J BASIS SET INFORMATION
---------------------------------
There are 2 groups of distinct atoms

 Group   1 Type C   : 12s5p4d2f1g contracted to 6s4p3d1f1g pattern {711111/2111/211/2/1}
 Group   2 Type H   : 5s2p1d contracted to 3s1p1d pattern {311/2/1}

Atom   0C    basis set group =>   1
Atom   1C    basis set group =>   1
Atom   2C    basis set group =>   1
Atom   3C    basis set group =>   1
Atom   4C    basis set group =>   1
Atom   5C    basis set group =>   1
Atom   6C    basis set group =>   1
Atom   7C    basis set group =>   1
Atom   8C    basis set group =>   1
Atom   9C    basis set group =>   1
Atom  10H    basis set group =>   2
Atom  11H    basis set group =>   2
Atom  12H    basis set group =>   2
Atom  13H    basis set group =>   2
Atom  14H    basis set group =>   2
Atom  15H    basis set group =>   2
Atom  16H    basis set group =>   2
Atom  17H    basis set group =>   2
------------------------------------------------------------------------------
                           ORCA GTO INTEGRAL CALCULATION
                           -- RI-GTO INTEGRALS CHOSEN --
------------------------------------------------------------------------------
------------------------------------------------------------------------------
                   ___                                                        
                  /   \      - P O W E R E D   B Y -                         
                 /     \                                                     
                 |  |  |   _    _      __       _____    __    __             
                 |  |  |  | |  | |    /  \     |  _  \  |  |  /  |          
                  \  \/   | |  | |   /    \    | | | |  |  | /  /          
                 / \  \   | |__| |  /  /\  \   | |_| |  |  |/  /          
                |  |  |   |  __  | /  /__\  \  |    /   |      \           
                |  |  |   | |  | | |   __   |  |    \   |  |\   \          
                \     /   | |  | | |  |  |  |  | |\  \  |  | \   \       
                 \___/    |_|  |_| |__|  |__|  |_| \__\ |__|  \__/        
                                                                              
                      - O R C A' S   B I G   F R I E N D -                    
                                      &                                       
                       - I N T E G R A L  F E E D E R -                       
                                                                              
 v1 FN, 2020, v2 2021                                                         
------------------------------------------------------------------------------


Reading SHARK input file naphthalene_orca_dft.SHARKINP.tmp ... ok
----------------------
SHARK INTEGRAL PACKAGE
----------------------

Number of atoms                             ...     18
Number of basis functions                   ...    358
Number of shells                            ...    142
Maximum angular momentum                    ...      3
Integral batch strategy                     ... SHARK/LIBINT Hybrid
RI-J (if used) integral strategy            ... SPLIT-RIJ (Revised 2003 algorithm where possible)
Printlevel                                  ...      1
Contraction scheme used                     ... SEGMENTED contraction
Coulomb Range Separation                    ... NOT USED
Exchange Range Separation                   ... NOT USED
Finite Nucleus Model                        ... NOT USED
Auxiliary Coulomb fitting basis             ... AVAILABLE
   # of basis functions in Aux-J            ...    578
   # of shells in Aux-J                     ...    190
   Maximum angular momentum in Aux-J        ...      4
Auxiliary J/K fitting basis                 ... NOT available
Auxiliary Correlation fitting basis         ... NOT available
Auxiliary 'external' fitting basis          ... NOT available
Integral threshold                          ...     1.000000e-10
Primitive cut-off                           ...     1.000000e-11
Primitive pair pre-selection threshold      ...     1.000000e-11

Calculating pre-screening integrals         ... done (  0.1 sec) Dimension = 142
Organizing shell pair data                  ... done (  0.0 sec)
Shell pair information
Total number of shell pairs                 ...     10153
Shell pairs after pre-screening             ...      6245
Total number of primitive shell pairs       ...     31120
Primitive shell pairs kept                  ...     13033
          la=0 lb=0:   1619 shell pairs
          la=1 lb=0:   1796 shell pairs
          la=1 lb=1:    515 shell pairs
          la=2 lb=0:    872 shell pairs
          la=2 lb=1:    504 shell pairs
          la=2 lb=2:    140 shell pairs
          la=3 lb=0:    408 shell pairs
          la=3 lb=1:    252 shell pairs
          la=3 lb=2:    104 shell pairs
          la=3 lb=3:     35 shell pairs

Calculating one electron integrals          ... done (  0.0 sec)
Calculating RI/J V-Matrix + Cholesky decomp.... done (  0.0 sec)
Calculating Nuclear repulsion               ... done (  0.0 sec) ENN=    240.471746381315 Eh

SHARK setup successfully completed in   1.4 seconds

Maximum memory used throughout the entire GTOINT-calculation: 85.4 MB
-------------------------------------------------------------------------------
                                 ORCA SCF
-------------------------------------------------------------------------------

------------
SCF SETTINGS
------------
Hamiltonian:
 Density Functional     Method          .... DFT(GTOs)
 Exchange Functional    Exchange        .... B88
   X-Alpha parameter    XAlpha          ....  0.666667
   Becke's b parameter  XBeta           ....  0.004200
 Correlation Functional Correlation     .... LYP
 LDA part of GGA corr.  LDAOpt          .... VWN-5
 Gradients option       PostSCFGGA      .... off
 Hybrid DFT is turned on
   Fraction HF Exchange ScalHFX         ....  0.200000
   Scaling of DF-GGA-X  ScalDFX         ....  0.720000
   Scaling of DF-GGA-C  ScalDFC         ....  0.810000
   Scaling of DF-LDA-C  ScalLDAC        ....  1.000000
   Perturbative correction              ....  0.000000
   Density functional embedding theory  .... OFF
   NL short-range parameter             ....  4.800000
 RI-approximation to the Coulomb term is turned on
   Number of AuxJ basis functions       .... 578
   RIJ-COSX (HFX calculated with COS-X)).... on


General Settings:
 Integral files         IntName         .... naphthalene_orca_dft
 Hartree-Fock type      HFTyp           .... UHF
 Total Charge           Charge          ....    0
 Multiplicity           Mult            ....    3
 Number of Electrons    NEL             ....   68
 Basis Dimension        Dim             ....  358
 Nuclear Repulsion      ENuc            ....    240.4717463813 Eh

Convergence Acceleration:
 DIIS                   CNVDIIS         .... on
   Start iteration      DIISMaxIt       ....    12
   Startup error        DIISStart       ....  0.200000
   # of expansion vecs  DIISMaxEq       ....     5
   Bias factor          DIISBfac        ....   1.050
   Max. coefficient     DIISMaxC        ....  10.000
 Trust-Rad. Augm. Hess. CNVTRAH         .... auto
   Auto Start mean grad. ratio tolernc. ....  1.125000
   Auto Start start iteration           ....    20
   Auto Start num. interpolation iter.  ....    10
   Max. Number of Micro iterations      ....    16
   Max. Number of Macro iterations      .... Maxiter - #DIIS iter
   Number of Davidson start vectors     ....     2
   Converg. threshold I  (grad. norm)   ....   5.000e-05
   Converg. threshold II (energy diff.) ....   1.000e-08
   Grad. Scal. Fac. for Micro threshold ....   0.100
   Minimum threshold for Micro iter.    ....   0.010
   NR start threshold (gradient norm)   ....   0.001
   Initial trust radius                 ....   0.400
   Minimum AH scaling param. (alpha)    ....   1.000
   Maximum AH scaling param. (alpha)    .... 1000.000
   Orbital update algorithm             .... Taylor
   White noise on init. David. guess    .... on
   Maximum white noise                  ....   0.010
   Quad. conv. algorithm                .... NR
 SOSCF                  CNVSOSCF        .... off
 Level Shifting         CNVShift        .... on
   Level shift para.    LevelShift      ....    0.2500
   Turn off err/grad.   ShiftErr        ....    0.0010
 Zerner damping         CNVZerner       .... off
 Static damping         CNVDamp         .... on
   Fraction old density DampFac         ....    0.7000
   Max. Damping (<1)    DampMax         ....    0.9800
   Min. Damping (>=0)   DampMin         ....    0.0000
   Turn off err/grad.   DampErr         ....    0.1000
 Fernandez-Rico         CNVRico         .... off

SCF Procedure:
 Maximum # iterations   MaxIter         ....   500
 SCF integral mode      SCFMode         .... Direct
   Integral package                     .... SHARK and LIBINT hybrid scheme
 Reset frequency        DirectResetFreq ....    20
 Integral Threshold     Thresh          ....  1.000e-10 Eh
 Primitive CutOff       TCut            ....  1.000e-11 Eh

Convergence Tolerance:
 Convergence Check Mode ConvCheckMode   .... Total+1el-Energy
 Convergence forced     ConvForced      .... 1
 Energy Change          TolE            ....  1.000e-08 Eh
 1-El. energy change                    ....  1.000e-05 Eh
 DIIS Error             TolErr          ....  5.000e-07


Diagonalization of the overlap matrix:
Smallest eigenvalue                        ... 5.055e-03
Time for diagonalization                   ...    0.038 sec
Threshold for overlap eigenvalues          ... 1.000e-08
Number of eigenvalues below threshold      ... 0
Time for construction of square roots      ...    0.016 sec
Total time needed                          ...    0.054 sec

Time for model grid setup =    0.338 sec

------------------------------
INITIAL GUESS: MODEL POTENTIAL
------------------------------
Loading Hartree-Fock densities                     ... done
Calculating cut-offs                               ... done
Initializing the effective Hamiltonian             ... done
Setting up the integral package (SHARK)            ... done
Starting the Coulomb interaction                   ... done (   0.4 sec)
Reading the grid                                   ... done
Mapping shells                                     ... done
Starting the XC term evaluation                    ... done (   0.3 sec)
  promolecular density results
     # of electrons  =     67.996228334
     EX              =    -51.770293198
     EC              =     -1.971654047
     EX+EC           =    -53.741947244
Transforming the Hamiltonian                       ... done (   0.0 sec)
Diagonalizing the Hamiltonian                      ... done (   0.0 sec)
Back transforming the eigenvectors                 ... done (   0.0 sec)
Now organizing SCF variables                       ... done
                      ------------------
                      INITIAL GUESS DONE (   1.1 sec)
                      ------------------
-------------------
DFT GRID GENERATION
-------------------

General Integration Accuracy     IntAcc      ... 4.388
Radial Grid Type                 RadialGrid  ... OptM3 with GC (2021)
Angular Grid (max. ang.)         AngularGrid ... 4 (Lebedev-302)
Angular grid pruning method      GridPruning ... 4 (adaptive)
Weight generation scheme         WeightScheme... Becke
Basis function cutoff            BFCut       ... 1.0000e-10
Integration weight cutoff        WCut        ... 1.0000e-14
Angular grids for H and He will be reduced by one unit
Partially contracted basis set               ... off
Rotationally invariant grid construction     ... off

Total number of grid points                  ...    87814
Total number of batches                      ...     1382
Average number of points per batch           ...       63
Average number of grid points per atom       ...     4879
Time for grid setup =    1.116 sec

--------------------
COSX GRID GENERATION
--------------------

GRIDX 1
-------
General Integration Accuracy     IntAcc      ... 3.816
Radial Grid Type                 RadialGrid  ... OptM3 with GC (2021)
Angular Grid (max. ang.)         AngularGrid ... 1 (Lebedev-50)
Angular grid pruning method      GridPruning ... 4 (adaptive)
Weight generation scheme         WeightScheme... Becke
Basis function cutoff            BFCut       ... 1.0000e-10
Integration weight cutoff        WCut        ... 1.0000e-14
Angular grids for H and He will be reduced by one unit
Partially contracted basis set               ... on
Rotationally invariant grid construction     ... off

Total number of grid points                  ...    11210
Total number of batches                      ...      184
Average number of points per batch           ...       60
Average number of grid points per atom       ...      623
UseSFitting                                  ... on

GRIDX 2
-------
General Integration Accuracy     IntAcc      ... 4.020
Radial Grid Type                 RadialGrid  ... OptM3 with GC (2021)
Angular Grid (max. ang.)         AngularGrid ... 2 (Lebedev-110)
Angular grid pruning method      GridPruning ... 4 (adaptive)
Weight generation scheme         WeightScheme... Becke
Basis function cutoff            BFCut       ... 1.0000e-10
Integration weight cutoff        WCut        ... 1.0000e-14
Angular grids for H and He will be reduced by one unit
Partially contracted basis set               ... on
Rotationally invariant grid construction     ... off

Total number of grid points                  ...    24898
Total number of batches                      ...      396
Average number of points per batch           ...       62
Average number of grid points per atom       ...     1383
UseSFitting                                  ... on

GRIDX 3
-------
General Integration Accuracy     IntAcc      ... 4.338
Radial Grid Type                 RadialGrid  ... OptM3 with GC (2021)
Angular Grid (max. ang.)         AngularGrid ... 3 (Lebedev-194)
Angular grid pruning method      GridPruning ... 4 (adaptive)
Weight generation scheme         WeightScheme... Becke
Basis function cutoff            BFCut       ... 1.0000e-10
Integration weight cutoff        WCut        ... 1.0000e-14
Angular grids for H and He will be reduced by one unit
Partially contracted basis set               ... on
Rotationally invariant grid construction     ... off

Total number of grid points                  ...    54944
Total number of batches                      ...      868
Average number of points per batch           ...       63
Average number of grid points per atom       ...     3052
UseSFitting                                  ... on

Time for X-Grid setup             =    1.551 sec

--------------
SCF ITERATIONS
--------------
ITER       Energy         Delta-E        Max-DP      RMS-DP      [F,P]     Damp
               ***  Starting incremental Fock matrix formation  ***
  0   -382.3279491796   0.000000000000 0.01869750  0.00040594  0.0825162 0.7000
  1   -382.4807714015  -0.152822221848 0.01443338  0.00031969  0.0348730 0.7000
                               ***Turning on DIIS***
  2   -382.5131550815  -0.032383679987 0.02721904  0.00046183  0.0073763 0.0000
  3   -382.5062594393   0.006895642218 0.00896543  0.00018443  0.0465042 0.0000
  4   -382.5563069747  -0.050047535460 0.00653276  0.00012447  0.0232596 0.0000
  5   -382.5747681212  -0.018461146505 0.00381492  0.00007669  0.0132713 0.0000
  6   -382.5798631075  -0.005094986280 0.00456690  0.00005411  0.0066516 0.0000
  7   -382.5824009904  -0.002537882942 0.00411257  0.00005203  0.0042166 0.0000
  8   -382.5842438145  -0.001842824003 0.00367371  0.00004757  0.0038028 0.0000
  9   -382.5858918205  -0.001648006035 0.00364568  0.00004622  0.0039554 0.0000
 10   -382.5875131001  -0.001621279664 0.00338344  0.00004234  0.0037724 0.0000
 11   -382.5890071313  -0.001494031148 0.00268764  0.00003586  0.0041246 0.0000
 12   -382.5902916195  -0.001284488248 0.00208948  0.00002807  0.0037995 0.0000
 13   -382.5912958362  -0.001004216667 0.00153330  0.00002121  0.0037187 0.0000
 14   -382.5920571022  -0.000761265966 0.00132858  0.00001763  0.0039622 0.0000
 15   -382.5927323901  -0.000675287908 0.00193044  0.00002861  0.0042588 0.0000
 16   -382.5937441607  -0.001011770591 0.00363359  0.00004199  0.0038099 0.0000
 17   -382.5952980988  -0.001553938154 0.00318113  0.00004785  0.0044999 0.0000
 18   -382.5971046539  -0.001806555064 0.00473526  0.00006873  0.0038920 0.0000
 19   -382.5995531704  -0.002448516458 0.00368024  0.00006153  0.0036408 0.0000
               *** Restarting incremental Fock matrix formation ***
                                   *** Resetting DIIS ***

 WARNING: the maximum gradient error descreased on average only by a factor   1.0
          during the last 20 iterations

                      *** Initiating the TRAH-SCF procedure ***


TRAH GRIDX
----------

General Integration Accuracy     IntAcc      ... 3.067
Radial Grid Type                 RadialGrid  ... OptM3 with GC (2021)
Angular Grid (max. ang.)         AngularGrid ... 1 (Lebedev-50)
Angular grid pruning method      GridPruning ... 4 (adaptive)
Weight generation scheme         WeightScheme... Becke
Basis function cutoff            BFCut       ... 1.0000e-10
Integration weight cutoff        WCut        ... 1.0000e-14
Angular grids for H and He will be reduced by one unit
Partially contracted basis set               ... on
Rotationally invariant grid construction     ... off

Total number of grid points                  ...     5910
Total number of batches                      ...      102
Average number of points per batch           ...       57
Average number of grid points per atom       ...      328


TRAH GRID
---------

General Integration Accuracy     IntAcc      ... 3.467
Radial Grid Type                 RadialGrid  ... OptM3 with GC (2021)
Angular Grid (max. ang.)         AngularGrid ... 1 (Lebedev-50)
Angular grid pruning method      GridPruning ... 4 (adaptive)
Weight generation scheme         WeightScheme... Becke
Basis function cutoff            BFCut       ... 1.0000e-10
Integration weight cutoff        WCut        ... 1.0000e-14
Angular grids for H and He will be reduced by one unit
Partially contracted basis set               ... off
Rotationally invariant grid construction     ... off

Total number of grid points                  ...    12954
Total number of batches                      ...      214
Average number of points per batch           ...       60
Average number of grid points per atom       ...      720

 --------------------------------------------------------------------------------------------
   Iter.        energy            ||Error||_2        Shift      TRadius  Mac/Mic        Rej.
 --------------------------------------------------------------------------------------------
    0       -382.601618153414     1.780836e-02                     0.400 (TRAH MAcro)   No
WARNING : small    HOMO - LUMO gap : (op = alpha) 0.014762
    0     dE    -1.211572e-03     9.510854e-02    -1.2060e-03      0.068 (TRAH MIcro)
    0     dE    -4.465373e-03     1.851141e-01    -4.1838e-03      0.259 (TRAH MIcro)
    0     dE    -9.952101e-03     4.848833e-02    -2.0962e-02      0.400 (TRAH MIcro)
    0     dE    -1.086155e-02     1.570256e-02    -2.6414e-02      0.400 (TRAH MIcro)
    0     dE    -1.191520e-02     2.431613e-02    -3.3710e-02      0.400 (TRAH MIcro)
    0     dE    -1.263283e-02     1.448544e-02    -4.0189e-02      0.400 (TRAH MIcro)
    0     dE    -1.111688e-02     8.586893e-03    -4.6975e-02      0.349 (TRAH MIcro)
    0     dE    -1.126533e-02     6.992099e-03    -4.7142e-02      0.352 (TRAH MIcro)
    0     dE    -1.150966e-02     4.171467e-03    -4.7418e-02      0.358 (TRAH MIcro)
    0     dE    -1.154477e-02     3.565074e-03    -4.7456e-02      0.358 (TRAH MIcro)
    0     dE    -1.162306e-02     2.396164e-03    -4.7535e-02      0.360 (TRAH MIcro)
    0     dE    -1.163882e-02     1.752272e-03    -4.7549e-02      0.360 (TRAH MIcro)
    1       -382.612560587736     1.460206e-02                     0.480 (TRAH MAcro)   No
WARNING : small    HOMO - LUMO gap : (op = alpha) 0.009242
    1     dE    -1.788271e-03     1.456692e-01    -1.7626e-03      0.121 (TRAH MIcro)
    1     dE    -4.164086e-03     1.704880e-01    -3.8712e-03      0.275 (TRAH MIcro)
    1     dE    -1.132280e-02     4.394883e-02    -1.9768e-02      0.480 (TRAH MIcro)
    1     dE    -1.216376e-02     2.285072e-02    -2.3400e-02      0.480 (TRAH MIcro)
    1     dE    -1.273582e-02     1.944596e-02    -2.6266e-02      0.478 (TRAH MIcro)
    1     dE    -1.353541e-02     1.129148e-02    -2.9995e-02      0.480 (TRAH MIcro)
    1     dE    -1.362683e-02     7.742896e-03    -3.0520e-02      0.480 (TRAH MIcro)
    1     dE    -1.367916e-02     5.546781e-03    -3.0835e-02      0.480 (TRAH MIcro)
    1     dE    -1.370699e-02     5.154672e-03    -3.1010e-02      0.480 (TRAH MIcro)
    1     dE    -1.373679e-02     5.004169e-03    -3.1205e-02      0.480 (TRAH MIcro)
    1     dE    -1.376673e-02     4.587990e-03    -3.1408e-02      0.480 (TRAH MIcro)
    1     dE    -1.378045e-02     3.737003e-03    -3.1511e-02      0.480 (TRAH MIcro)
    1     dE    -1.379130e-02     2.404514e-03    -3.1600e-02      0.480 (TRAH MIcro)
    1     dE    -1.379855e-02     2.232351e-03    -3.1673e-02      0.480 (TRAH MIcro)
    2       -382.624254921499     1.108294e-02                     0.576 (TRAH MAcro)   No
WARNING : small    HOMO - LUMO gap : (op = alpha) 0.005218
    2     dE    -1.642702e-04     4.347535e-02    -1.6423e-04      0.015 (TRAH MIcro)
    2     dE    -5.533002e-03     6.504074e-02    -4.8085e-03      0.576 (TRAH MIcro)
    2     dE    -9.525924e-03     6.243832e-02    -1.9352e-02      0.572 (TRAH MIcro)
    2     dE    -1.208797e-02     4.377649e-02    -2.9147e-02      0.576 (TRAH MIcro)
    2     dE    -1.063970e-02     2.861289e-02    -3.7974e-02      0.488 (TRAH MIcro)
    2     dE    -1.550879e-02     3.664463e-02    -4.1905e-02      0.576 (TRAH MIcro)
    2     dE    -1.651556e-02     2.149305e-02    -4.4590e-02      0.576 (TRAH MIcro)
    2     dE    -1.696347e-02     1.090858e-02    -4.5706e-02      0.576 (TRAH MIcro)
    2     dE    -1.709987e-02     7.827294e-03    -4.6100e-02      0.576 (TRAH MIcro)
    2     dE    -1.719763e-02     7.134284e-03    -4.6512e-02      0.576 (TRAH MIcro)
    2     dE    -1.727259e-02     4.357155e-03    -4.6902e-02      0.576 (TRAH MIcro)
    2     dE    -1.730092e-02     2.951603e-03    -4.7082e-02      0.576 (TRAH MIcro)
    2     dE    -1.730796e-02     2.112925e-03    -4.7118e-02      0.576 (TRAH MIcro)
    2     dE    -1.731745e-02     1.739767e-03    -4.7139e-02      0.576 (TRAH MIcro)
    3       -382.639354954707     2.515732e-02                     0.691 (TRAH MAcro)   No
    3     dE    -1.013098e-03     7.581855e-02    -1.0115e-03      0.040 (TRAH MIcro)
    3     dE    -2.563626e-02     1.595922e-01    -2.6065e-02      0.691 (TRAH MIcro)
    3     dE    -3.014795e-02     5.673562e-02    -3.4814e-02      0.691 (TRAH MIcro)
    3     dE    -3.167940e-02     3.198100e-02    -3.7385e-02      0.691 (TRAH MIcro)
    3     dE    -3.315900e-02     3.659660e-02    -3.9764e-02      0.691 (TRAH MIcro)
    3     dE    -3.479049e-02     1.361834e-02    -4.2906e-02      0.691 (TRAH MIcro)
    3     dE    -3.494918e-02     1.017947e-02    -4.3268e-02      0.691 (TRAH MIcro)
    3     dE    -3.514440e-02     8.907314e-03    -4.3792e-02      0.691 (TRAH MIcro)
    3     dE    -3.530328e-02     9.307566e-03    -4.4334e-02      0.691 (TRAH MIcro)
    3     dE    -3.540246e-02     8.742729e-03    -4.4759e-02      0.691 (TRAH MIcro)
    3     dE    -3.123142e-02     6.794256e-03    -4.8672e-02      0.621 (TRAH MIcro)
    3     dE    -3.203903e-02     8.230201e-03    -4.8805e-02      0.633 (TRAH MIcro)
    3     dE    -3.353280e-02     6.537577e-03    -4.8994e-02      0.654 (TRAH MIcro)
    3     dE    -3.569491e-02     6.149891e-03    -4.9188e-02      0.685 (TRAH MIcro)
    4       -382.668032268543     2.424316e-02                     0.829 (TRAH MAcro)   No
    4     dE    -7.258099e-04     6.906838e-02    -7.2516e-04      0.030 (TRAH MIcro)
    4     dE    -1.308964e-02     1.060671e-01    -1.0029e-02      0.552 (TRAH MIcro)
    4     dE    -2.421647e-02     5.546665e-02    -1.4719e-02      0.803 (TRAH MIcro)
    4     dE    -2.770457e-02     5.458687e-02    -1.8227e-02      0.829 (TRAH MIcro)
    4     dE    -3.366829e-02     2.963600e-02    -2.8566e-02      0.829 (TRAH MIcro)
    4     dE    -3.468177e-02     2.199431e-02    -3.0469e-02      0.829 (TRAH MIcro)
    4     dE    -3.545118e-02     1.774041e-02    -3.1672e-02      0.829 (TRAH MIcro)
    4     dE    -3.602500e-02     1.543553e-02    -3.2708e-02      0.829 (TRAH MIcro)
    4     dE    -3.630645e-02     1.322634e-02    -3.3387e-02      0.829 (TRAH MIcro)
    4     dE    -3.648994e-02     8.220203e-03    -3.3987e-02      0.829 (TRAH MIcro)
    4     dE    -3.669031e-02     8.780437e-03    -3.4820e-02      0.829 (TRAH MIcro)
    4     dE    -3.674397e-02     7.341739e-03    -3.5138e-02      0.829 (TRAH MIcro)
    4     dE    -3.682408e-02     5.621504e-03    -3.5368e-02      0.829 (TRAH MIcro)
    4     dE    -3.685489e-02     4.005013e-03    -3.5468e-02      0.829 (TRAH MIcro)
    5       -382.683786346682     7.693511e-02                     0.829 (TRAH MAcro)   No
    5     dE    -3.615077e-03     1.077267e-01    -3.6071e-03      0.047 (TRAH MIcro)
    5     dE    -6.790758e-03     3.082491e-02    -6.6621e-03      0.139 (TRAH MIcro)
    5     dE    -1.050420e-02     5.366953e-02    -9.7500e-03      0.278 (TRAH MIcro)
    5     dE    -1.494649e-02     3.820313e-02    -1.2293e-02      0.465 (TRAH MIcro)
    5     dE    -1.982548e-02     4.376437e-02    -1.3962e-02      0.648 (TRAH MIcro)
    5     dE    -2.986513e-02     3.494161e-02    -2.3976e-02      0.829 (TRAH MIcro)
    5     dE    -3.158807e-02     2.843032e-02    -2.7803e-02      0.827 (TRAH MIcro)
    5     dE    -3.296075e-02     2.380421e-02    -3.0440e-02      0.829 (TRAH MIcro)
    5     dE    -3.377496e-02     1.420209e-02    -3.2236e-02      0.829 (TRAH MIcro)
    5     dE    -3.400329e-02     1.005706e-02    -3.2716e-02      0.829 (TRAH MIcro)
    5     dE    -1.783743e-02     1.042733e-02    -3.7748e-02      0.465 (TRAH MIcro)
    5     dE    -1.693069e-02     5.849431e-03    -3.8095e-02      0.434 (TRAH MIcro)
    6       -382.699565444953     2.001271e-02                     0.995 (TRAH MAcro)   No
    6     dE    -5.460911e-04     6.145976e-02    -5.4568e-04      0.027 (TRAH MIcro)
    6     dE    -6.896286e-03     1.213732e-01    -5.8541e-03      0.422 (TRAH MIcro)
    6     dE    -2.463359e-02     6.776236e-02    -1.3128e-02      0.936 (TRAH MIcro)
    6     dE    -3.271784e-02     8.608237e-02    -1.9198e-02      0.995 (TRAH MIcro)
    6     dE    -3.724880e-02     2.755206e-02    -2.4663e-02      0.995 (TRAH MIcro)
    6     dE    -3.812671e-02     2.485271e-02    -2.5738e-02      0.995 (TRAH MIcro)
    6     dE    -3.680864e-02     1.396897e-02    -2.6837e-02      0.959 (TRAH MIcro)
    6     dE    -3.787671e-02     1.464489e-02    -2.7081e-02      0.973 (TRAH MIcro)
    6     dE    -3.860739e-02     1.020937e-02    -2.7209e-02      0.983 (TRAH MIcro)
    6     dE    -3.916298e-02     5.214147e-03    -2.7270e-02      0.992 (TRAH MIcro)
    6     dE    -3.938847e-02     3.707900e-03    -2.7359e-02      0.995 (TRAH MIcro)
    6     dE    -3.940156e-02     2.592596e-03    -2.7390e-02      0.995 (TRAH MIcro)
    6     dE    -3.941065e-02     1.806383e-03    -2.7405e-02      0.995 (TRAH MIcro)
    7       -382.704501194396     9.637175e-02                     0.697 (TRAH MAcro)   No
    7     dE    -5.691548e-03     1.473719e-01    -5.6719e-03      0.059 (TRAH MIcro)
    7     dE    -1.204781e-02     3.324748e-02    -1.1582e-02      0.201 (TRAH MIcro)
    7     dE    -1.477469e-02     2.982281e-02    -1.3620e-02      0.291 (TRAH MIcro)
    7     dE    -1.667648e-02     1.939076e-02    -1.4607e-02      0.376 (TRAH MIcro)
    7     dE    -2.378199e-02     3.757701e-02    -1.6426e-02      0.669 (TRAH MIcro)
    7     dE    -2.639304e-02     1.972213e-02    -2.2403e-02      0.697 (TRAH MIcro)
    7     dE    -2.708770e-02     1.321737e-02    -2.4628e-02      0.697 (TRAH MIcro)
    7     dE    -2.745323e-02     1.003600e-02    -2.5606e-02      0.697 (TRAH MIcro)
    7     dE    -2.759094e-02     6.901365e-03    -2.5919e-02      0.697 (TRAH MIcro)
 ---------------------------------
          TRAH Step control 
 ---------------------------------
  predicted energy change = -0.027591
  actual energy  change   = 0.001307
  energy change ratio     = -0.047375
  old trust radius        = 0.696730
  new trust radius        = 0.487711
  reject step?            =  1
    8       -382.704501194396     2.001271e-02                     0.488 (TRAH MAcro)  Yes
    9       -382.704501194396     9.637175e-02                     0.488 (TRAH MAcro)   No
    9     dE    -5.690802e-03     1.473908e-01    -5.6712e-03      0.059 (TRAH MIcro)
    9     dE    -1.204772e-02     3.325344e-02    -1.1582e-02      0.201 (TRAH MIcro)
    9     dE    -1.477533e-02     2.981844e-02    -1.3620e-02      0.291 (TRAH MIcro)
    9     dE    -1.667725e-02     1.939929e-02    -1.4607e-02      0.376 (TRAH MIcro)
    9     dE    -1.985263e-02     2.164467e-02    -2.1970e-02      0.488 (TRAH MIcro)
    9     dE    -2.042585e-02     1.234883e-02    -2.6866e-02      0.488 (TRAH MIcro)
    9     dE    -1.956342e-02     8.746714e-03    -3.0019e-02      0.447 (TRAH MIcro)
   10       -382.713466051435     5.123210e-02                     0.488 (TRAH MAcro)   No
   10     dE    -1.193780e-03     1.108801e-01    -1.1931e-03      0.023 (TRAH MIcro)
   10     dE    -3.625464e-03     3.165018e-02    -3.5919e-03      0.097 (TRAH MIcro)
   10     dE    -6.630250e-03     2.237014e-02    -6.0898e-03      0.298 (TRAH MIcro)
   10     dE    -7.739331e-03     1.821119e-02    -6.7642e-03      0.380 (TRAH MIcro)
   10     dE    -9.240244e-03     1.437699e-02    -7.4653e-03      0.488 (TRAH MIcro)
   10     dE    -9.550606e-03     8.785030e-03    -9.2637e-03      0.488 (TRAH MIcro)
   10     dE    -9.709131e-03     6.214933e-03    -9.9350e-03      0.488 (TRAH MIcro)
   10     dE    -9.955543e-03     1.222556e-02    -1.0629e-02      0.488 (TRAH MIcro)
   10     dE    -1.025116e-02     1.230181e-02    -1.2173e-02      0.488 (TRAH MIcro)
   10     dE    -1.023662e-02     9.650806e-03    -1.5331e-02      0.465 (TRAH MIcro)
   10     dE    -1.073913e-02     8.036271e-03    -1.6141e-02      0.488 (TRAH MIcro)
   10     dE    -1.084317e-02     4.784063e-03    -1.7030e-02      0.488 (TRAH MIcro)
   11       -382.719730347463     2.960261e-02                     0.488 (TRAH MAcro)   No
   11     dE    -5.463799e-04     3.887726e-02    -5.4619e-04      0.018 (TRAH MIcro)
   11     dE    -1.204919e-03     1.318896e-02    -1.2005e-03      0.061 (TRAH MIcro)
   11     dE    -1.614044e-03     8.985316e-03    -1.5951e-03      0.109 (TRAH MIcro)
   11     dE    -1.751299e-03     8.670453e-03    -1.7200e-03      0.135 (TRAH MIcro)
   11     dE    -2.275103e-03     1.628339e-02    -2.1330e-03      0.258 (TRAH MIcro)
   11     dE    -2.611186e-03     1.046757e-02    -2.3485e-03      0.334 (TRAH MIcro)
   11     dE    -2.761427e-03     6.482826e-03    -2.4338e-03      0.367 (TRAH MIcro)
   11     dE    -2.900945e-03     7.856562e-03    -2.5071e-03      0.396 (TRAH MIcro)
   11     dE    -3.012419e-03     7.615020e-03    -2.5597e-03      0.421 (TRAH MIcro)
   11     dE    -3.101577e-03     3.188695e-03    -2.5977e-03      0.440 (TRAH MIcro)
   11     dE    -3.127941e-03     2.380787e-03    -2.6079e-03      0.447 (TRAH MIcro)
   12       -382.722729539198     8.977161e-03                     0.585 (TRAH MAcro)   No
   12     dE    -2.782199e-05     1.665564e-02    -2.7822e-05      0.003 (TRAH MIcro)
   12     dE    -1.273765e-04     6.650530e-03    -1.2730e-04      0.025 (TRAH MIcro)
   12     dE    -2.177470e-04     5.550663e-03    -2.1715e-04      0.052 (TRAH MIcro)
   12     dE    -2.574427e-04     4.361031e-03    -2.5615e-04      0.071 (TRAH MIcro)
   12     dE    -3.099402e-04     6.785952e-03    -3.0674e-04      0.102 (TRAH MIcro)
   12     dE    -3.789427e-04     8.423572e-03    -3.7068e-04      0.149 (TRAH MIcro)
   12     dE    -4.312420e-04     5.957088e-03    -4.1662e-04      0.187 (TRAH MIcro)
   12     dE    -5.134200e-04     6.115697e-03    -4.8396e-04      0.247 (TRAH MIcro)
   12     dE    -5.420476e-04     5.426137e-03    -5.0596e-04      0.267 (TRAH MIcro)
   12     dE    -5.678879e-04     2.244694e-03    -5.2491e-04      0.286 (TRAH MIcro)
   12     dE    -5.756695e-04     1.948184e-03    -5.3047e-04      0.292 (TRAH MIcro)
   12     dE    -5.804383e-04     1.493865e-03    -5.3385e-04      0.295 (TRAH MIcro)
   12     dE    -5.828438e-04     9.121769e-04    -5.3551e-04      0.297 (TRAH MIcro)
   12     dE    -5.847468e-04     1.113323e-03    -5.3683e-04      0.299 (TRAH MIcro)
   13       -382.723418207614     3.778391e-03                     0.702 (TRAH MAcro)   No
   13     dE    -4.534471e-06     7.555592e-03    -4.5345e-06      0.001 (TRAH MIcro)
   13     dE    -2.564670e-05     2.974002e-03    -2.5643e-05      0.012 (TRAH MIcro)
   13     dE    -4.552040e-05     3.155710e-03    -4.5491e-05      0.025 (TRAH MIcro)
   13     dE    -6.125431e-05     3.263410e-03    -6.1148e-05      0.042 (TRAH MIcro)
   13     dE    -9.552799e-05     6.442654e-03    -9.4850e-05      0.085 (TRAH MIcro)
   13     dE    -1.604736e-04     7.882622e-03    -1.5598e-04      0.170 (TRAH MIcro)
   13     dE    -2.034895e-04     5.560125e-03    -1.9371e-04      0.225 (TRAH MIcro)
   13     dE    -2.682311e-04     5.146089e-03    -2.4584e-04      0.302 (TRAH MIcro)
   13     dE    -2.944134e-04     5.151668e-03    -2.6535e-04      0.331 (TRAH MIcro)
   13     dE    -3.158886e-04     2.304235e-03    -2.8057e-04      0.355 (TRAH MIcro)
   13     dE    -3.242235e-04     1.590392e-03    -2.8628e-04      0.364 (TRAH MIcro)
   13     dE    -3.283355e-04     1.302197e-03    -2.8907e-04      0.369 (TRAH MIcro)
   13     dE    -3.301140e-04     7.831628e-04    -2.9025e-04      0.371 (TRAH MIcro)
   13     dE    -3.317341e-04     7.841855e-04    -2.9134e-04      0.372 (TRAH MIcro)
   14       -382.723856428229     5.834181e-03                     0.843 (TRAH MAcro)   No
   14     dE    -1.424374e-05     8.022689e-03    -1.4244e-05      0.002 (TRAH MIcro)
   14     dE    -6.626957e-05     3.447260e-03    -6.6233e-05      0.024 (TRAH MIcro)
   14     dE    -7.526329e-05     2.912277e-03    -7.5202e-05      0.029 (TRAH MIcro)
   14     dE    -9.520242e-05     3.738025e-03    -9.4990e-05      0.047 (TRAH MIcro)
   14     dE    -1.221599e-04     7.080564e-03    -1.2138e-04      0.080 (TRAH MIcro)
   14     dE    -1.861730e-04     8.121134e-03    -1.8134e-04      0.163 (TRAH MIcro)
   14     dE    -3.184151e-04     8.474854e-03    -2.8864e-04      0.321 (TRAH MIcro)
   14     dE    -5.130818e-04     1.391467e-02    -4.0911e-04      0.504 (TRAH MIcro)
   14     dE    -6.483211e-04     1.010127e-02    -4.7439e-04      0.606 (TRAH MIcro)
   14     dE    -7.693945e-04     4.585065e-03    -5.2404e-04      0.684 (TRAH MIcro)
   14     dE    -8.333462e-04     4.778760e-03    -5.4741e-04      0.723 (TRAH MIcro)
   14     dE    -8.591558e-04     3.514000e-03    -5.5647e-04      0.738 (TRAH MIcro)
   14     dE    -8.886587e-04     3.059716e-03    -5.6634e-04      0.754 (TRAH MIcro)
   14     dE    -9.017358e-04     3.347208e-03    -5.7057e-04      0.762 (TRAH MIcro)
   15       -382.724161298467     2.514938e-02                     0.843 (TRAH MAcro)   No
   15     dE    -2.690442e-04     3.728040e-02    -2.6901e-04      0.011 (TRAH MIcro)
   15     dE    -8.592801e-04     1.328971e-02    -8.5620e-04      0.060 (TRAH MIcro)
   15     dE    -1.146110e-03     7.304889e-03    -1.1358e-03      0.095 (TRAH MIcro)
   15     dE    -1.205043e-03     4.497900e-03    -1.1908e-03      0.109 (TRAH MIcro)
   15     dE    -1.255468e-03     6.005818e-03    -1.2362e-03      0.125 (TRAH MIcro)
   15     dE    -1.301326e-03     5.494382e-03    -1.2756e-03      0.142 (TRAH MIcro)
   15     dE    -1.347784e-03     4.746162e-03    -1.3132e-03      0.162 (TRAH MIcro)
   15     dE    -1.421963e-03     6.678839e-03    -1.3678e-03      0.199 (TRAH MIcro)
   15     dE    -1.460170e-03     5.897429e-03    -1.3933e-03      0.219 (TRAH MIcro)
   15     dE    -1.494488e-03     2.202888e-03    -1.4144e-03      0.238 (TRAH MIcro)
   16       -382.725805299169     4.975742e-03                     1.011 (TRAH MAcro)   No
   16     dE    -1.165492e-05     8.036714e-03    -1.1655e-05      0.002 (TRAH MIcro)
   16     dE    -5.217777e-05     5.268539e-03    -5.2159e-05      0.019 (TRAH MIcro)
   16     dE    -9.807759e-05     4.435857e-03    -9.7853e-05      0.048 (TRAH MIcro)
   16     dE    -1.232107e-04     3.970550e-03    -1.2267e-04      0.067 (TRAH MIcro)
   16     dE    -1.710875e-04     5.006900e-03    -1.6923e-04      0.105 (TRAH MIcro)
   16     dE    -2.446948e-04     6.401920e-03    -2.3805e-04      0.167 (TRAH MIcro)
   16     dE    -3.124355e-04     5.235246e-03    -2.9736e-04      0.225 (TRAH MIcro)
   16     dE    -3.533400e-04     3.777574e-03    -3.3120e-04      0.259 (TRAH MIcro)
   16     dE    -3.823076e-04     2.808701e-03    -3.5396e-04      0.283 (TRAH MIcro)
   16     dE    -3.925838e-04     1.257237e-03    -3.6178e-04      0.292 (TRAH MIcro)
   16     dE    -3.953428e-04     9.333733e-04    -3.6389e-04      0.294 (TRAH MIcro)
   16     dE    -3.988899e-04     1.007945e-03    -3.6660e-04      0.297 (TRAH MIcro)
   16     dE    -4.005958e-04     1.112574e-03    -3.6791e-04      0.298 (TRAH MIcro)
   16     dE    -4.051786e-04     1.389202e-03    -3.7135e-04      0.302 (TRAH MIcro)
   17       -382.726125546818     5.053128e-03                     1.214 (TRAH MAcro)   No
   17     dE    -1.106307e-05     9.716922e-03    -1.1063e-05      0.002 (TRAH MIcro)
   17     dE    -4.491324e-05     4.073622e-03    -4.4904e-05      0.014 (TRAH MIcro)
   17     dE    -6.403961e-05     2.309471e-03    -6.4005e-05      0.023 (TRAH MIcro)
   17     dE    -6.703074e-05     1.325154e-03    -6.6987e-05      0.026 (TRAH MIcro)
   17     dE    -7.003328e-05     1.102398e-03    -6.9976e-05      0.029 (TRAH MIcro)
   17     dE    -7.209593e-05     1.065244e-03    -7.2026e-05      0.031 (TRAH MIcro)
   17     dE    -7.358488e-05     8.589417e-04    -7.3501e-05      0.034 (TRAH MIcro)
   17     dE    -7.475495e-05     9.116799e-04    -7.4657e-05      0.036 (TRAH MIcro)
   17     dE    -7.880070e-05     1.565505e-03    -7.8621e-05      0.048 (TRAH MIcro)
   17     dE    -8.100627e-05     1.546826e-03    -8.0757e-05      0.056 (TRAH MIcro)
   17     dE    -8.890559e-05     2.180031e-03    -8.8229e-05      0.088 (TRAH MIcro)
   17     dE    -1.003237e-04     3.599014e-03    -9.8494e-05      0.136 (TRAH MIcro)
   17     dE    -5.120250e-04     2.601110e-02    -2.6134e-04      0.979 (TRAH MIcro)
   17     dE    -2.004354e-03     2.751327e-02    -1.9564e-03      0.954 (TRAH MIcro)
 ---------------------------------
          TRAH Step control 
 ---------------------------------
  predicted energy change = -0.002004
  actual energy  change   = 0.005222
  energy change ratio     = -2.605093
  old trust radius        = 1.213580
  new trust radius        = 0.849506
  reject step?            =  1
   18       -382.726125546818     4.975742e-03                     0.850 (TRAH MAcro)  Yes
   19       -382.726125546818     5.053128e-03                     0.850 (TRAH MAcro)   No
   19     dE    -1.106239e-05     9.719126e-03    -1.1062e-05      0.002 (TRAH MIcro)
   19     dE    -4.490919e-05     4.075103e-03    -4.4900e-05      0.014 (TRAH MIcro)
   19     dE    -6.404251e-05     2.310483e-03    -6.4007e-05      0.023 (TRAH MIcro)
   19     dE    -6.703442e-05     1.324996e-03    -6.6991e-05      0.026 (TRAH MIcro)
   19     dE    -7.003491e-05     1.101667e-03    -6.9978e-05      0.029 (TRAH MIcro)
   19     dE    -7.209690e-05     1.065359e-03    -7.2027e-05      0.031 (TRAH MIcro)
   19     dE    -7.358693e-05     8.588068e-04    -7.3503e-05      0.034 (TRAH MIcro)
   19     dE    -7.475615e-05     9.121198e-04    -7.4659e-05      0.036 (TRAH MIcro)
   19     dE    -7.879522e-05     1.565259e-03    -7.8616e-05      0.048 (TRAH MIcro)
   19     dE    -8.100669e-05     1.546903e-03    -8.0758e-05      0.056 (TRAH MIcro)
   19     dE    -8.886886e-05     2.176386e-03    -8.8195e-05      0.087 (TRAH MIcro)
   19     dE    -1.003053e-04     3.601192e-03    -9.8478e-05      0.136 (TRAH MIcro)
   19     dE    -4.453988e-04     2.249242e-02    -2.9037e-04      0.850 (TRAH MIcro)
   19     dE    -1.631500e-03     2.439922e-02    -1.9730e-03      0.850 (TRAH MIcro)
 ---------------------------------
          TRAH Step control 
 ---------------------------------
  predicted energy change = -0.001631
  actual energy  change   = 0.003103
  energy change ratio     = -1.902039
  old trust radius        = 0.849506
  new trust radius        = 0.594654
  reject step?            =  1
   20       -382.726125546818     4.975742e-03                     0.595 (TRAH MAcro)  Yes
   21       -382.726125546818     5.053128e-03                     0.595 (TRAH MAcro)   No
   21     dE    -1.106238e-05     9.719822e-03    -1.1062e-05      0.002 (TRAH MIcro)
   21     dE    -4.490949e-05     4.074853e-03    -4.4901e-05      0.014 (TRAH MIcro)
   21     dE    -6.404232e-05     2.309477e-03    -6.4007e-05      0.023 (TRAH MIcro)
   21     dE    -6.703441e-05     1.324854e-03    -6.6991e-05      0.026 (TRAH MIcro)
   21     dE    -7.003481e-05     1.101644e-03    -6.9978e-05      0.029 (TRAH MIcro)
   21     dE    -7.209705e-05     1.066153e-03    -7.2027e-05      0.031 (TRAH MIcro)
   21     dE    -7.358677e-05     8.592045e-04    -7.3503e-05      0.034 (TRAH MIcro)
   21     dE    -7.475603e-05     9.118992e-04    -7.4659e-05      0.036 (TRAH MIcro)
   21     dE    -7.879634e-05     1.565460e-03    -7.8617e-05      0.048 (TRAH MIcro)
   21     dE    -8.100643e-05     1.546846e-03    -8.0758e-05      0.056 (TRAH MIcro)
   21     dE    -8.887683e-05     2.177397e-03    -8.8202e-05      0.087 (TRAH MIcro)
   21     dE    -1.003106e-04     3.598079e-03    -9.8483e-05      0.136 (TRAH MIcro)
   21     dE    -3.144240e-04     1.503285e-02    -4.0224e-04      0.574 (TRAH MIcro)
   21     dE    -8.936721e-04     1.692041e-02    -2.0578e-03      0.595 (TRAH MIcro)
 ---------------------------------
          TRAH Step control 
 ---------------------------------
  predicted energy change = -0.000894
  actual energy  change   = 0.000385
  energy change ratio     = -0.431216
  old trust radius        = 0.594654
  new trust radius        = 0.416258
  reject step?            =  1
   22       -382.726125546818     4.975742e-03                     0.416 (TRAH MAcro)  Yes
   23       -382.726125546818     5.053128e-03                     0.416 (TRAH MAcro)   No
   23     dE    -1.106253e-05     9.719500e-03    -1.1062e-05      0.002 (TRAH MIcro)
   23     dE    -4.490961e-05     4.076976e-03    -4.4901e-05      0.014 (TRAH MIcro)
   23     dE    -6.404251e-05     2.309939e-03    -6.4007e-05      0.023 (TRAH MIcro)
   23     dE    -6.703449e-05     1.324858e-03    -6.6991e-05      0.026 (TRAH MIcro)
   23     dE    -7.003499e-05     1.101521e-03    -6.9978e-05      0.029 (TRAH MIcro)
   23     dE    -7.209708e-05     1.065115e-03    -7.2027e-05      0.031 (TRAH MIcro)
   23     dE    -7.358656e-05     8.584168e-04    -7.3503e-05      0.034 (TRAH MIcro)
   23     dE    -7.475602e-05     9.125389e-04    -7.4659e-05      0.036 (TRAH MIcro)
   23     dE    -7.879714e-05     1.565241e-03    -7.8618e-05      0.048 (TRAH MIcro)
   23     dE    -8.100636e-05     1.546801e-03    -8.0757e-05      0.056 (TRAH MIcro)
   23     dE    -8.888373e-05     2.178209e-03    -8.8208e-05      0.088 (TRAH MIcro)
   23     dE    -1.003163e-04     3.596508e-03    -9.8488e-05      0.136 (TRAH MIcro)
   23     dE    -2.305191e-04     9.997073e-03    -5.6614e-04      0.389 (TRAH MIcro)
   23     dE    -2.304580e-04     5.961184e-03    -2.5188e-03      0.223 (TRAH MIcro)
   24       -382.726323671999     6.160467e-03                     0.500 (TRAH MAcro)   No
   24     dE    -4.623634e-06     8.937093e-03    -4.6236e-06      0.001 (TRAH MIcro)
   24     dE    -3.694715e-05     2.954579e-03    -3.6943e-05      0.010 (TRAH MIcro)
   24     dE    -7.293824e-05     4.985223e-03    -7.2874e-05      0.030 (TRAH MIcro)
   24     dE    -1.060912e-04     5.606749e-03    -1.0578e-04      0.054 (TRAH MIcro)
   24     dE    -1.825225e-04     7.494039e-03    -1.8002e-04      0.118 (TRAH MIcro)
   24     dE    -3.503558e-04     1.402236e-02    -3.2891e-04      0.255 (TRAH MIcro)
   24     dE    -1.120931e-03     1.697662e-02    -2.2334e-03      0.500 (TRAH MIcro)
   24     dE    -1.381227e-03     1.115724e-02    -3.3420e-03      0.500 (TRAH MIcro)
   24     dE    -1.538765e-03     7.658779e-03    -4.4531e-03      0.480 (TRAH MIcro)
   24     dE    -1.682648e-03     6.026815e-03    -4.6374e-03      0.500 (TRAH MIcro)
   24     dE    -1.726589e-03     3.490464e-03    -4.8310e-03      0.500 (TRAH MIcro)
   24     dE    -1.740111e-03     2.939353e-03    -4.8920e-03      0.500 (TRAH MIcro)
   24     dE    -1.762139e-03     2.777066e-03    -4.9931e-03      0.500 (TRAH MIcro)
   24     dE    -1.770578e-03     2.275434e-03    -5.0336e-03      0.500 (TRAH MIcro)
   25       -382.727207676120     7.781078e-03                     0.500 (TRAH MAcro)   No
   25     dE    -3.078861e-05     1.289192e-02    -3.0788e-05      0.004 (TRAH MIcro)
   25     dE    -1.474945e-04     5.998282e-03    -1.4735e-04      0.032 (TRAH MIcro)
   25     dE    -1.915640e-04     3.752363e-03    -1.9118e-04      0.045 (TRAH MIcro)
   25     dE    -2.056802e-04     2.796409e-03    -2.0513e-04      0.052 (TRAH MIcro)
   25     dE    -2.270197e-04     2.741492e-03    -2.2606e-04      0.065 (TRAH MIcro)
   25     dE    -2.356410e-04     2.379675e-03    -2.3442e-04      0.072 (TRAH MIcro)
   25     dE    -2.441997e-04     1.813490e-03    -2.4266e-04      0.080 (TRAH MIcro)
   25     dE    -2.542403e-04     2.575484e-03    -2.5218e-04      0.090 (TRAH MIcro)
   25     dE    -2.643798e-04     2.446080e-03    -2.6159e-04      0.103 (TRAH MIcro)
   25     dE    -2.758449e-04     2.263707e-03    -2.7187e-04      0.121 (TRAH MIcro)
   25     dE    -2.866741e-04     2.615293e-03    -2.8125e-04      0.139 (TRAH MIcro)
   25     dE    -2.966111e-04     2.456897e-03    -2.8954e-04      0.156 (TRAH MIcro)
   25     dE    -3.083136e-04     2.269456e-03    -2.9888e-04      0.178 (TRAH MIcro)
   25     dE    -3.235763e-04     2.642022e-03    -3.1044e-04      0.206 (TRAH MIcro)
   26       -382.727542651153     3.462420e-03                     0.599 (TRAH MAcro)   No
   26     dE    -1.424287e-06     4.637473e-03    -1.4243e-06      0.000 (TRAH MIcro)
   26     dE    -7.711677e-06     1.965837e-03    -7.7115e-06      0.004 (TRAH MIcro)
   26     dE    -1.402602e-05     1.429378e-03    -1.4025e-05      0.010 (TRAH MIcro)
   26     dE    -1.604160e-05     1.421548e-03    -1.6039e-05      0.013 (TRAH MIcro)
   26     dE    -1.863038e-05     1.200065e-03    -1.8624e-05      0.019 (TRAH MIcro)
   26     dE    -2.139835e-05     1.310452e-03    -2.1384e-05      0.026 (TRAH MIcro)
   26     dE    -2.509417e-05     1.525235e-03    -2.5059e-05      0.038 (TRAH MIcro)
   26     dE    -2.851827e-05     1.523593e-03    -2.8450e-05      0.049 (TRAH MIcro)
   26     dE    -3.511113e-05     1.808537e-03    -3.4924e-05      0.073 (TRAH MIcro)
   26     dE    -4.040144e-05     1.953092e-03    -4.0049e-05      0.094 (TRAH MIcro)
   26     dE    -4.634856e-05     1.543603e-03    -4.5715e-05      0.118 (TRAH MIcro)
   26     dE    -5.106753e-05     1.585816e-03    -5.0126e-05      0.137 (TRAH MIcro)
   26     dE    -5.492893e-05     1.481025e-03    -5.3674e-05      0.153 (TRAH MIcro)
   26     dE    -5.875599e-05     1.262467e-03    -5.7130e-05      0.169 (TRAH MIcro)
   27       -382.727606639333     2.459336e-03                     0.719 (TRAH MAcro)   No
   27     dE    -2.040071e-06     3.705617e-03    -2.0401e-06      0.001 (TRAH MIcro)
   27     dE    -5.077732e-06     1.203867e-03    -5.0777e-06      0.004 (TRAH MIcro)
   27     dE    -7.335362e-06     1.226426e-03    -7.3350e-06      0.007 (TRAH MIcro)
   27     dE    -8.204218e-06     1.070588e-03    -8.2035e-06      0.010 (TRAH MIcro)
   27     dE    -9.671586e-06     8.725851e-04    -9.6694e-06      0.015 (TRAH MIcro)
   27     dE    -1.067631e-05     1.095062e-03    -1.0672e-05      0.019 (TRAH MIcro)
   27     dE    -1.176508e-05     9.245336e-04    -1.1758e-05      0.025 (TRAH MIcro)
   27     dE    -1.279977e-05     7.856374e-04    -1.2788e-05      0.030 (TRAH MIcro)
   27     dE    -1.399630e-05     1.100443e-03    -1.3977e-05      0.037 (TRAH MIcro)
   27     dE    -1.491283e-05     8.132630e-04    -1.4886e-05      0.043 (TRAH MIcro)
   27     dE    -1.570237e-05     6.643231e-04    -1.5666e-05      0.048 (TRAH MIcro)
   27     dE    -1.665293e-05     1.019850e-03    -1.6603e-05      0.055 (TRAH MIcro)
   27     dE    -1.761069e-05     1.132848e-03    -1.7543e-05      0.062 (TRAH MIcro)
   27     dE    -1.973898e-05     1.149634e-03    -1.9615e-05      0.079 (TRAH MIcro)
   28       -382.727627766377     1.193734e-03                     0.863 (TRAH MAcro)   No
   28     dE    -1.935552e-07     1.732980e-03    -1.9356e-07      0.000 (TRAH MIcro)
   28     dE    -1.108428e-06     5.919179e-04    -1.1084e-06      0.002 (TRAH MIcro)
   28     dE    -1.899248e-06     6.074769e-04    -1.8992e-06      0.004 (TRAH MIcro)
   28     dE    -2.478250e-06     6.203618e-04    -2.4782e-06      0.006 (TRAH MIcro)
   28     dE    -3.000907e-06     4.826256e-04    -3.0007e-06      0.009 (TRAH MIcro)
   28     dE    -3.523645e-06     5.113062e-04    -3.5232e-06      0.012 (TRAH MIcro)
   28     dE    -4.033707e-06     5.305068e-04    -4.0328e-06      0.015 (TRAH MIcro)
   28     dE    -4.642934e-06     5.269680e-04    -4.6411e-06      0.020 (TRAH MIcro)
   28     dE    -5.211793e-06     5.689375e-04    -5.2086e-06      0.025 (TRAH MIcro)
   28     dE    -6.010687e-06     5.722524e-04    -6.0045e-06      0.032 (TRAH MIcro)
   28     dE    -6.494263e-06     5.276614e-04    -6.4854e-06      0.037 (TRAH MIcro)
   28     dE    -7.169088e-06     5.995932e-04    -7.1553e-06      0.044 (TRAH MIcro)
   28     dE    -7.848656e-06     6.526039e-04    -7.8281e-06      0.051 (TRAH MIcro)
   28     dE    -9.043051e-06     7.449160e-04    -9.0053e-06      0.065 (TRAH MIcro)
   29       -382.727636594898     8.699636e-04                           (NR   MAcro)
   29     dE    -7.535124e-07     6.153006e-04                           (NR   MIcro)
   29     dE    -1.534154e-06     4.752987e-04                           (NR   MIcro)
   29     dE    -1.851829e-06     4.755727e-04                           (NR   MIcro)
   29     dE    -2.260064e-06     4.080139e-04                           (NR   MIcro)
   29     dE    -2.670839e-06     4.568068e-04                           (NR   MIcro)
   29     dE    -3.021891e-06     3.846902e-04                           (NR   MIcro)
   29     dE    -3.318534e-06     3.663557e-04                           (NR   MIcro)
   29     dE    -3.575232e-06     3.267057e-04                           (NR   MIcro)
   29     dE    -3.817337e-06     3.428090e-04                           (NR   MIcro)
   29     dE    -4.002308e-06     3.358490e-04                           (NR   MIcro)
   29     dE    -4.290932e-06     3.629344e-04                           (NR   MIcro)
   29     dE    -4.499663e-06     3.322647e-04                           (NR   MIcro)
   29     dE    -4.834497e-06     4.803032e-04                           (NR   MIcro)
   29     dE    -5.513180e-06     7.625759e-04                           (NR   MIcro)
   29     dE    -7.006334e-06     7.506498e-04                           (NR   MIcro)
   30       -382.727643797094     7.787467e-04                           (NR   MAcro)
   30     dE    -7.065682e-07     4.091411e-04                           (NR   MIcro)
   30     dE    -9.886979e-07     3.890377e-04                           (NR   MIcro)
   30     dE    -1.183926e-06     3.075736e-04                           (NR   MIcro)
   30     dE    -1.319884e-06     2.716471e-04                           (NR   MIcro)
   30     dE    -1.494139e-06     2.976791e-04                           (NR   MIcro)
   30     dE    -1.577770e-06     2.837386e-04                           (NR   MIcro)
   30     dE    -1.706312e-06     2.315924e-04                           (NR   MIcro)
   30     dE    -1.815253e-06     3.233637e-04                           (NR   MIcro)
   30     dE    -1.953816e-06     3.172426e-04                           (NR   MIcro)
   30     dE    -2.063399e-06     2.457352e-04                           (NR   MIcro)
   30     dE    -2.164930e-06     2.470967e-04                           (NR   MIcro)
   30     dE    -2.230683e-06     2.303874e-04                           (NR   MIcro)
   30     dE    -2.307785e-06     2.007793e-04                           (NR   MIcro)
   30     dE    -2.427090e-06     3.234417e-04                           (NR   MIcro)
   30     dE    -2.552384e-06     3.907945e-04                           (NR   MIcro)
   31       -382.727646326979     3.987636e-04                           (NR   MAcro)
   31     dE    -1.022918e-07     2.315862e-04                           (NR   MIcro)
   31     dE    -1.905993e-07     1.887630e-04                           (NR   MIcro)
   31     dE    -2.444498e-07     2.053403e-04                           (NR   MIcro)
   31     dE    -2.888595e-07     1.634515e-04                           (NR   MIcro)
   31     dE    -3.399863e-07     1.882705e-04                           (NR   MIcro)
   31     dE    -4.077256e-07     2.683331e-04                           (NR   MIcro)
   31     dE    -4.745723e-07     2.319228e-04                           (NR   MIcro)
   31     dE    -5.460813e-07     1.727834e-04                           (NR   MIcro)
   31     dE    -6.139624e-07     2.321377e-04                           (NR   MIcro)
   31     dE    -6.592460e-07     2.242606e-04                           (NR   MIcro)
   31     dE    -7.382314e-07     1.938716e-04                           (NR   MIcro)
   31     dE    -7.925922e-07     2.335080e-04                           (NR   MIcro)
   31     dE    -8.705933e-07     2.218771e-04                           (NR   MIcro)
   31     dE    -9.519505e-07     2.363835e-04                           (NR   MIcro)
   31     dE    -1.078087e-06     3.671760e-04                           (NR   MIcro)
   32       -382.727647396411     3.742898e-04                           (NR   MAcro)
   32     dE    -1.043785e-07     1.783613e-04                           (NR   MIcro)
   32     dE    -1.628914e-07     1.893989e-04                           (NR   MIcro)
   32     dE    -2.091778e-07     1.778156e-04                           (NR   MIcro)
   32     dE    -2.386843e-07     1.274138e-04                           (NR   MIcro)
   32     dE    -2.815194e-07     1.809855e-04                           (NR   MIcro)
   32     dE    -3.035337e-07     1.831760e-04                           (NR   MIcro)
   32     dE    -3.369477e-07     1.199009e-04                           (NR   MIcro)
   32     dE    -3.691602e-07     1.874790e-04                           (NR   MIcro)
   32     dE    -4.099980e-07     2.196837e-04                           (NR   MIcro)
   32     dE    -4.392632e-07     1.374862e-04                           (NR   MIcro)
   32     dE    -4.637885e-07     1.263337e-04                           (NR   MIcro)
   32     dE    -4.816286e-07     1.450518e-04                           (NR   MIcro)
   32     dE    -5.011785e-07     1.122765e-04                           (NR   MIcro)
   32     dE    -5.227224e-07     1.245422e-04                           (NR   MIcro)
   32     dE    -5.440281e-07     1.831381e-04                           (NR   MIcro)
   33       -382.727647935371     1.860672e-04                           (NR   MAcro)
   33     dE    -1.908632e-08     1.056234e-04                           (NR   MIcro)
   33     dE    -3.607913e-08     9.161381e-05                           (NR   MIcro)
   33     dE    -4.987559e-08     1.187314e-04                           (NR   MIcro)
   33     dE    -6.153607e-08     9.117725e-05                           (NR   MIcro)
   33     dE    -7.741646e-08     1.121187e-04                           (NR   MIcro)
   33     dE    -9.460461e-08     1.707507e-04                           (NR   MIcro)
   33     dE    -1.162627e-07     1.293551e-04                           (NR   MIcro)
   33     dE    -1.330392e-07     8.573620e-05                           (NR   MIcro)
   33     dE    -1.493472e-07     1.330799e-04                           (NR   MIcro)
   33     dE    -1.600267e-07     1.215970e-04                           (NR   MIcro)
   33     dE    -1.781947e-07     9.447551e-05                           (NR   MIcro)
   33     dE    -1.907142e-07     1.253729e-04                           (NR   MIcro)
   33     dE    -2.093451e-07     1.107199e-04                           (NR   MIcro)
   33     dE    -2.264445e-07     1.086415e-04                           (NR   MIcro)
   33     dE    -2.499945e-07     1.767803e-04                           (NR   MIcro)
   34       -382.727648189257     1.790940e-04                           (NR   MAcro)
   34     dE    -1.989389e-08     8.135731e-05                           (NR   MIcro)
   34     dE    -3.223342e-08     9.097206e-05                           (NR   MIcro)
   34     dE    -4.340824e-08     9.383808e-05                           (NR   MIcro)
   34     dE    -5.021422e-08     6.433167e-05                           (NR   MIcro)
   34     dE    -6.034390e-08     9.479516e-05                           (NR   MIcro)
   34     dE    -6.616821e-08     1.025234e-04                           (NR   MIcro)
   34     dE    -7.507169e-08     6.259417e-05                           (NR   MIcro)
   34     dE    -8.370160e-08     1.000484e-04                           (NR   MIcro)
   34     dE    -9.497748e-08     1.252429e-04                           (NR   MIcro)
   34     dE    -1.023273e-07     8.243678e-05                           (NR   MIcro)
   34     dE    -1.097016e-07     6.367652e-05                           (NR   MIcro)
   34     dE    -1.142742e-07     7.519099e-05                           (NR   MIcro)
   34     dE    -1.190795e-07     5.566820e-05                           (NR   MIcro)
   34     dE    -1.236734e-07     5.722933e-05                           (NR   MIcro)
   34     dE    -1.279263e-07     8.361471e-05                           (NR   MIcro)
   35       -382.727648319306     8.487346e-05                           (NR   MAcro)
   35     dE    -3.921153e-09     4.840827e-05                           (NR   MIcro)
   35     dE    -7.646063e-09     4.574929e-05                           (NR   MIcro)
   35     dE    -1.115672e-08     6.290558e-05                           (NR   MIcro)
   35     dE    -1.424914e-08     4.794585e-05                           (NR   MIcro)
   35     dE    -1.895786e-08     6.573863e-05                           (NR   MIcro)
   35     dE    -2.361605e-08     9.737502e-05                           (NR   MIcro)
   35     dE    -2.992157e-08     6.744939e-05                           (NR   MIcro)
   35     dE    -3.419478e-08     4.425231e-05                           (NR   MIcro)
   35     dE    -3.850084e-08     7.097314e-05                           (NR   MIcro)
   35     dE    -4.100301e-08     5.837238e-05                           (NR   MIcro)
   35     dE    -4.500968e-08     4.596255e-05                           (NR   MIcro)
   35     dE    -4.759973e-08     6.332982e-05                           (NR   MIcro)
   35     dE    -5.163978e-08     5.221387e-05                           (NR   MIcro)
   35     dE    -5.520774e-08     4.928430e-05                           (NR   MIcro)
   35     dE    -5.973883e-08     8.366859e-05                           (NR   MIcro)
   36       -382.727648382805     8.441827e-05                           (NR   MAcro)
   36     dE    -3.971521e-09     3.752396e-05                           (NR   MIcro)
   36     dE    -6.585760e-09     4.385024e-05                           (NR   MIcro)
   36     dE    -9.201374e-09     4.940355e-05                           (NR   MIcro)
   36     dE    -1.080733e-08     3.277158e-05                           (NR   MIcro)
   36     dE    -1.326259e-08     4.758443e-05                           (NR   MIcro)
   36     dE    -1.477304e-08     5.567579e-05                           (NR   MIcro)
   36     dE    -1.720873e-08     3.205037e-05                           (NR   MIcro)
   36     dE    -1.946017e-08     5.178731e-05                           (NR   MIcro)
   36     dE    -2.246948e-08     6.670445e-05                           (NR   MIcro)
   36     dE    -2.440151e-08     4.388823e-05                           (NR   MIcro)
   36     dE    -2.633416e-08     3.215574e-05                           (NR   MIcro)
   36     dE    -2.746967e-08     3.808272e-05                           (NR   MIcro)
   36     dE    -2.863515e-08     2.709949e-05                           (NR   MIcro)
   36     dE    -2.966222e-08     2.640446e-05                           (NR   MIcro)
   36     dE    -3.057818e-08     3.892186e-05                           (NR   MIcro)
   37       -382.727648415591     3.957132e-05                           (NR   MAcro)
   37     dE    -8.644256e-10     2.239705e-05                           (NR   MIcro)
   37     dE    -1.733125e-09     2.341013e-05                           (NR   MIcro)
   37     dE    -2.644065e-09     3.299733e-05                           (NR   MIcro)
   37     dE    -3.478193e-09     2.506776e-05                           (NR   MIcro)
   37     dE    -4.834913e-09     3.673688e-05                           (NR   MIcro)
   37     dE    -6.110777e-09     5.282706e-05                           (NR   MIcro)
   37     dE    -7.812874e-09     3.470438e-05                           (NR   MIcro)
   37     dE    -8.903174e-09     2.239082e-05                           (NR   MIcro)
   37     dE    -9.976356e-09     3.579965e-05                           (NR   MIcro)
   37     dE    -1.058028e-08     2.727918e-05                           (NR   MIcro)
   37     dE    -1.147882e-08     2.283737e-05                           (NR   MIcro)
   37     dE    -1.202909e-08     3.132459e-05                           (NR   MIcro)
   37     dE    -1.288743e-08     2.381000e-05                           (NR   MIcro)
   37     dE    -1.362412e-08     2.262246e-05                           (NR   MIcro)
   37     dE    -1.454585e-08     4.017715e-05                           (NR   MIcro)
   38       -382.727648432271     4.046454e-05                           (NR   MAcro)
   38     dE    -8.338723e-10     1.775195e-05                           (NR   MIcro)
   38     dE    -1.415569e-09     2.152073e-05                           (NR   MIcro)
[...]
      f+1     :    -0.000011
      f-1     :    -0.000145
      f+2     :     0.000005
      f-2     :     0.000009
      f+3     :     0.000015
      f-3     :    -0.000179
  3 C s       :    -0.030923  s :    -0.030923
      pz      :    -0.508625  p :    -0.341357
      px      :     0.284427
      py      :    -0.117159
      dz2     :    -0.002359  d :    -0.001215
      dxz     :     0.000651
      dyz     :     0.001389
      dx2y2   :     0.001626
      dxy     :    -0.002523
      f0      :     0.000052  f :     0.000044
      f+1     :     0.000006
      f-1     :     0.000039
      f+2     :     0.000043
      f-2     :     0.000030
      f+3     :     0.000020
      f-3     :    -0.000146
  4 C s       :    -0.010929  s :    -0.010929
      pz      :     0.725744  p :     1.377054
      px      :     0.236452
      py      :     0.414858
      dz2     :    -0.003046  d :    -0.008152
      dxz     :     0.000040
      dyz     :    -0.000594
      dx2y2   :    -0.001708
      dxy     :    -0.002844
      f0      :    -0.000016  f :    -0.000389
      f+1     :    -0.000090
      f-1     :    -0.000060
      f+2     :    -0.000014
      f-2     :     0.000002
      f+3     :     0.000025
      f-3     :    -0.000237
  5 C s       :    -0.006202  s :    -0.006202
      pz      :     0.299257  p :     1.049067
      px      :     0.291068
      py      :     0.458742
      dz2     :    -0.002714  d :    -0.009921
      dxz     :    -0.000396
      dyz     :    -0.000061
      dx2y2   :    -0.005827
      dxy     :    -0.000923
      f0      :    -0.000007  f :    -0.000283
      f+1     :    -0.000005
      f-1     :    -0.000080
      f+2     :    -0.000011
      f-2     :    -0.000006
      f+3     :    -0.000004
      f-3     :    -0.000172
  6 C s       :    -0.008203  s :    -0.008203
      pz      :    -0.062361  p :    -0.097130
      px      :    -0.359713
      py      :     0.324944
      dz2     :    -0.000999  d :    -0.004688
      dxz     :    -0.000045
      dyz     :    -0.000024
      dx2y2   :    -0.004829
      dxy     :     0.001209
      f0      :     0.000002  f :    -0.000060
      f+1     :     0.000006
      f-1     :    -0.000045
      f+2     :    -0.000018
      f-2     :     0.000012
      f+3     :    -0.000024
      f-3     :     0.000006
  7 C s       :     0.000667  s :     0.000667
      pz      :     0.960644  p :     1.633401
      px      :     0.327658
      py      :     0.345098
      dz2     :    -0.002153  d :    -0.004192
      dxz     :     0.000248
      dyz     :     0.000066
      dx2y2   :    -0.003445
      dxy     :     0.001091
      f0      :     0.000001  f :    -0.000280
      f+1     :     0.000007
      f-1     :    -0.000151
      f+2     :     0.000002
      f-2     :     0.000004
      f+3     :     0.000015
      f-3     :    -0.000159
  8 C s       :    -0.045308  s :    -0.045308
      pz      :    -0.921864  p :    -0.523057
      px      :     0.045942
      py      :     0.352865
      dz2     :    -0.002977  d :    -0.002768
      dxz     :     0.000573
      dyz     :     0.001536
      dx2y2   :    -0.000573
      dxy     :    -0.001327
      f0      :     0.000027  f :     0.000083
      f+1     :     0.000071
      f-1     :     0.000128
      f+2     :     0.000036
      f-2     :     0.000011
      f+3     :     0.000027
      f-3     :    -0.000217
  9 C s       :     0.002376  s :     0.002376
      pz      :     0.917997  p :     1.557308
      px      :     0.464008
      py      :     0.175303
      dz2     :    -0.002373  d :    -0.007448
      dxz     :    -0.000025
      dyz     :    -0.001090
      dx2y2   :     0.001196
      dxy     :    -0.005156
      f0      :    -0.000022  f :    -0.000385
      f+1     :    -0.000120
      f-1     :    -0.000045
      f+2     :    -0.000028
      f-2     :     0.000002
      f+3     :     0.000004
      f-3     :    -0.000176
 10 H s       :    -0.556392  s :    -0.556392
      pz      :     0.000332  p :     0.001749
      px      :     0.000082
      py      :     0.001335
 11 H s       :    -0.510845  s :    -0.510845
      pz      :    -0.000361  p :     0.001006
      px      :     0.001124
      py      :     0.000243
 12 H s       :    -0.553694  s :    -0.553694
      pz      :     0.000322  p :     0.001623
      px      :     0.000791
      py      :     0.000510
 13 H s       :    -0.403837  s :    -0.403837
      pz      :    -0.000024  p :     0.001380
      px      :    -0.000170
      py      :     0.001575
 14 H s       :    -0.565789  s :    -0.565789
      pz      :     0.000299  p :     0.001669
      px      :     0.000090
      py      :     0.001280
 15 H s       :    -0.471370  s :    -0.471370
      pz      :    -0.000206  p :     0.001126
      px      :     0.000858
      py      :     0.000473
 16 H s       :    -0.565543  s :    -0.565543
      pz      :     0.000233  p :     0.001745
      px      :     0.001151
      py      :     0.000360
 17 H s       :    -0.512190  s :    -0.512190
      pz      :     0.000094  p :     0.001931
      px      :     0.000101
      py      :     0.001736


                      *****************************
                      * MAYER POPULATION ANALYSIS *
                      *****************************

  NA   - Mulliken gross atomic population
  ZA   - Total nuclear charge
  QA   - Mulliken gross atomic charge
  VA   - Mayer's total valence
  BVA  - Mayer's bonded valence
  FA   - Mayer's free valence

  ATOM       NA         ZA         QA         VA         BVA        FA
  0 C      5.9580     6.0000     0.0420     2.5059     1.1801     1.3258
  1 C      6.0093     6.0000    -0.0093     2.5132     1.2307     1.2825
  2 C      6.0476     6.0000    -0.0476     2.5503     1.3222     1.2281
  3 C      6.0204     6.0000    -0.0204     2.5547     1.5339     1.0209
  4 C      6.0209     6.0000    -0.0209     2.5726     1.5171     1.0555
  5 C      5.9951     6.0000     0.0049     2.3646     1.5335     0.8311
  6 C      5.9915     6.0000     0.0085     2.3980     1.7168     0.6812
  7 C      6.0805     6.0000    -0.0805     2.6118     1.3405     1.2713
  8 C      6.0043     6.0000    -0.0043     2.5730     1.4424     1.1307
  9 C      6.0903     6.0000    -0.0903     2.6945     1.4771     1.2174
 10 H      0.9863     1.0000     0.0137     0.9869     0.5934     0.3936
 11 H      0.9543     1.0000     0.0457     0.9868     0.6606     0.3262
 12 H      0.9888     1.0000     0.0112     0.9864     0.5964     0.3900
 13 H      0.9790     1.0000     0.0210     0.9874     0.7781     0.2093
 14 H      0.9706     1.0000     0.0294     0.9865     0.5823     0.4041
 15 H      0.9584     1.0000     0.0416     0.9869     0.7078     0.2792
 16 H      0.9640     1.0000     0.0360     0.9857     0.5814     0.4042
 17 H      0.9805     1.0000     0.0195     0.9867     0.6503     0.3364

  Mayer bond orders larger than 0.100000
B(  0-C ,  1-C ) :   0.2277 B(  0-C ,  2-C ) :   0.3470 B(  0-C ,  7-C ) :   0.4236 
B(  1-C ,  5-C ) :   0.4020 B(  1-C ,  6-C ) :   0.4518 B(  2-C ,  3-C ) :   0.3479 
B(  2-C , 14-H ) :   0.5094 B(  3-C ,  4-C ) :   0.4598 B(  3-C , 15-H ) :   0.6119 
B(  4-C ,  5-C ) :   0.4316 B(  4-C , 16-H ) :   0.5185 B(  5-C , 17-H ) :   0.6081 
B(  6-C ,  9-C ) :   0.4164 B(  6-C , 13-H ) :   0.7321 B(  7-C ,  8-C ) :   0.3086 
B(  7-C , 10-H ) :   0.5059 B(  8-C ,  9-C ) :   0.4326 B(  8-C , 11-H ) :   0.5518 
B(  9-C , 12-H ) :   0.5050 

-------
TIMINGS
-------

Total SCF time: 0 days 0 hours 41 min 45 sec 

Total time                  ....    2505.646 sec
Sum of individual times     ....    2485.012 sec  ( 99.2%)

Fock matrix formation       ....    2470.669 sec  ( 98.6%)
  Split-RI-J                ....     372.716 sec  ( 15.1% of F)
  Chain of spheres X        ....    1861.626 sec  ( 75.3% of F)
  XC integration            ....     235.433 sec  (  9.5% of F)
    Basis function eval.    ....      53.527 sec  ( 22.7% of XC)
    Density eval.           ....      68.608 sec  ( 29.1% of XC)
    XC-Functional eval.     ....      11.131 sec  (  4.7% of XC)
    XC-Potential eval.      ....      88.802 sec  ( 37.7% of XC)
Diagonalization             ....       1.309 sec  (  0.1%)
Density matrix formation    ....       0.583 sec  (  0.0%)
Population analysis         ....       0.056 sec  (  0.0%)
Initial guess               ....       0.738 sec  (  0.0%)
Orbital Transformation      ....       7.969 sec  (  0.3%)
Orbital Orthonormalization  ....       0.000 sec  (  0.0%)
DIIS solution               ....       0.681 sec  (  0.0%)
Grid generation             ....       3.005 sec  (  0.1%)

Maximum memory used throughout the entire SCF-calculation: 163.3 MB

-------------------------   --------------------
FINAL SINGLE POINT ENERGY      -382.727664728364
-------------------------   --------------------

   --->>> g-tensor requested, so NeedSOC=true

                            ***************************************
                            *     ORCA property calculations      *
                            ***************************************

                                    ---------------------
                                    Active property flags
                                    ---------------------
   (+) Dipole Moment
   (+) g-tensor
   (+) Spin-Orbit Integrals are needed


------------------------------------------------------------------------------
                       ORCA ELECTRIC PROPERTIES CALCULATION
------------------------------------------------------------------------------

Dipole Moment Calculation                       ... on
Quadrupole Moment Calculation                   ... off
Polarizability Calculation                      ... off
GBWName                                         ... naphthalene_orca_dft.gbw
Electron density                                ... naphthalene_orca_dft.scfp
The origin for moment calculation is the CENTER OF MASS  = ( 0.000000, -0.000000  0.000000)

-------------
DIPOLE MOMENT
-------------
                                X             Y             Z
Electronic contribution:      0.90253      -0.20903       0.03669
Nuclear contribution   :      0.00000       0.00000       0.00000
                        -----------------------------------------
Total Dipole Moment    :      0.90253      -0.20903       0.03669
                        -----------------------------------------
Magnitude (a.u.)       :      0.92714
Magnitude (Debye)      :      2.35661



--------------------
Rotational spectrum 
--------------------
 
Rotational constants in cm-1:     0.029542     0.011137     0.008088 
Rotational constants in MHz :   885.647316   333.873526   242.467518 

 Dipole components along the rotational axes: 
x,y,z [a.u.] :     0.902526    -0.209034     0.036694 
x,y,z [Debye]:     2.294040    -0.531323     0.093269 

 
------------------------------------------------------------------------------
                         ORCA SPIN-ORBIT COUPLING CALCULATION
------------------------------------------------------------------------------

GBW file                                    ... naphthalene_orca_dft.gbw
Input density                               ... naphthalene_orca_dft.scfp
Output integrals                            ... naphthalene_orca_dft
Operator type                               ... Mean-field/Effective potential
   One-Electron Terms                       ... 1
   Coulomb Contribution                     ... 2
   Exchange Contribution                    ... 3
   Correlation Contribution                 ... 0
   Maximum number of centers                ... 4
Setting up the integration grid             ... done
Evaluating density on the grid              ... (NumEl=   68.000031) done
Evaluating Coulomb term semi-analytically   ... done
SHARK 2-electron DoJ,X=0,1 MaxCenter=1      ... done (  2.2 sec)
Evaluating the spin-orbit operator          ... done

Maximum memory used throughout the entire SOC-calculation: 160.1 MB
Total time for SOC: 62.551
------------------------------------------------------------------------------
                                ORCA EPR/NMR CALCULATION
------------------------------------------------------------------------------

GBWName                      ... naphthalene_orca_dft.gbw
Electron density             ... naphthalene_orca_dft.scfp
Spin density                 ... naphthalene_orca_dft.scfr
Spin-orbit integrals         ... naphthalene_orca_dft
Origin for angular momentum  ... Center of electronic charge
Coordinates of the origin    ...   -0.01327245    0.00307404   -0.00053962 (bohrs)
Details of the CP(SCF) procedure:
       Solver   = POPLE   
       MaxIter  =   300   
       Tolerance=    1.000e-08
       COSX Grid=     1   
       Op-0     =   0- 34 =>  35-357
       Op-1     =   0- 32 =>  33-357
Multiplicity                 ... 3
g-tensor                     ... 1
NMR chemical shifts          ... 0
NMR spin-spin couplings      ... 0
NMR spectrum                 ... 0
Forming RHS of the CP-SCF equations         ... 
Calc. angular momentum integrals (SHARK)    ... done

------------------------------------------------------------------------------
                           ORCA CP-SCF CALCULATION
------------------------------------------------------------------------------

Input orbitals are from        ... naphthalene_orca_dft.gbw
Input Perturbation             ... naphthalene_orca_dft.pin.tmp
Wavefunction output            ... naphthalene_orca_dft.pout.tmp
Perturbation mode              ... Imaginary perturbation
Solver                         ... POPLE
Max. number of iterations      ... 300
Convergence tolerance          ... 1.000e-08
Integral handling              ... Direct
DFT GridXC                     ... 1
COSX GridX                     ... 1
COSX IntAccX                   ... 3.067
COSX Algorithm                 ... Auto
Number of perturbations        ... 3
Number of operators            ... 2
Orbital ranges used for CP-SCF:
 Operator 0:  Orbitals   0... 34  to  35...357
 Operator 1:  Orbitals   0... 32  to  33...357
Variables per perturbation     ... 22030
DFT calculation                         ... on
XC functional terms                     ... off
Hybrid DFT                              ... on
   Exchange mixing (SCF)                ...  0.200
   Exchange mixing (CP-SCF)             ...  0.200
   GGA exch. scaling(SCF)               ...  0.720
   GGA exch. scaling (CP-SCF)           ...  0.720
   GGA corr. scaling (SCF)              ...  0.810
   GGA corr. scaling (CP-SCF)           ...  0.810

CP-SCF GRID
-----------

General Integration Accuracy     IntAcc      ... 3.467
Radial Grid Type                 RadialGrid  ... OptM3 with GC (2021)
Angular Grid (max. ang.)         AngularGrid ... 1 (Lebedev-50)
Angular grid pruning method      GridPruning ... 4 (adaptive)
Weight generation scheme         WeightScheme... Becke
Basis function cutoff            BFCut       ... 1.0000e-10
Integration weight cutoff        WCut        ... 1.0000e-14
Angular grids for H and He will be reduced by one unit
Partially contracted basis set               ... off
Rotationally invariant grid construction     ... off

Total number of grid points                  ...    12954
Total number of batches                      ...      214
Average number of points per batch           ...       60
Average number of grid points per atom       ...      720

CP-SCF GRIDX
------------

General Integration Accuracy     IntAcc      ... 3.067
Radial Grid Type                 RadialGrid  ... OptM3 with GC (2021)
Angular Grid (max. ang.)         AngularGrid ... 1 (Lebedev-50)
Angular grid pruning method      GridPruning ... 4 (adaptive)
Weight generation scheme         WeightScheme... Becke
Basis function cutoff            BFCut       ... 1.0000e-10
Integration weight cutoff        WCut        ... 1.0000e-14
Angular grids for H and He will be reduced by one unit
Partially contracted basis set               ... on
Rotationally invariant grid construction     ... off

Total number of grid points                  ...     5910
Total number of batches                      ...      102
Average number of points per batch           ...       57
Average number of grid points per atom       ...      328

Memory available               ... 840.2 MB
Memory needed per perturbation ... 106.4 MB
Perturbations treated per batch... 3
Number of batches              ... 1
     CP-SCF ITERATION   0:   8.6521e+00 (   4.6 sec   0/  3 done)
     CP-SCF ITERATION   1:   4.0079e+00 (   4.3 sec   0/  3 done)
     CP-SCF ITERATION   2:   1.7193e+00 (   4.3 sec   0/  3 done)
     CP-SCF ITERATION   3:   6.9069e-01 (   4.3 sec   0/  3 done)
     CP-SCF ITERATION   4:   3.7120e-01 (   4.3 sec   0/  3 done)
     CP-SCF ITERATION   5:   1.3335e-01 (   4.2 sec   0/  3 done)
     CP-SCF ITERATION   6:   5.0660e-02 (   4.2 sec   0/  3 done)
     CP-SCF ITERATION   7:   2.1281e-02 (   4.2 sec   0/  3 done)
     CP-SCF ITERATION   8:   7.4522e-03 (   4.2 sec   0/  3 done)
     CP-SCF ITERATION   9:   2.7770e-03 (   4.2 sec   0/  3 done)
     CP-SCF ITERATION  10:   9.0277e-04 (   4.3 sec   0/  3 done)
     CP-SCF ITERATION  11:   2.6732e-04 (   4.3 sec   0/  3 done)
     CP-SCF ITERATION  12:   1.0193e-04 (   4.1 sec   0/  3 done)
     CP-SCF ITERATION  13:   3.9679e-05 (   4.1 sec   0/  3 done)
     CP-SCF ITERATION  14:   1.5810e-05 (   4.0 sec   0/  3 done)
     CP-SCF ITERATION  15:   5.3407e-06 (   4.0 sec   0/  3 done)
     CP-SCF ITERATION  16:   1.6825e-06 (   4.0 sec   0/  3 done)
     CP-SCF ITERATION  17:   5.1103e-07 (   4.0 sec   0/  3 done)
     CP-SCF ITERATION  18:   1.9324e-07 (   4.0 sec   0/  3 done)
     CP-SCF ITERATION  19:   7.5482e-08 (   4.0 sec   0/  3 done)
     CP-SCF ITERATION  20:   2.6627e-08 (   4.1 sec   0/  3 done)
     CP-SCF ITERATION  21:   9.4223e-09 (   4.1 sec   3/  3 done)
                    *** THE CP-SCF HAS CONVERGED ***

Forming final perturbed densities           ... done
Transforming perturbed density to AO basis  ... done

Magnetic field perturbation calculated in 92.343 sec
Diamagnetic terms                           (SHARK) ...ORIGIN= -0.013272  0.003074 -0.000540
done
terms done

-------------------
ELECTRONIC G-MATRIX
-------------------

 The g-matrix: 
              1.9982863   -0.0015915    0.0021652
             -0.0011767    1.9904674    0.0013018
              0.0026405    0.0013299    1.9950387

 gel          2.0023193    2.0023193    2.0023193
 gRMC        -0.0002977   -0.0002977   -0.0002977
 gDSO(tot)    0.0000704    0.0000323    0.0000746
 gPSO(tot)   -0.0124565   -0.0075022   -0.0024910
             ----------   ----------   ----------
 g(tot)       1.9896355    1.9945517    1.9996052 iso=  1.9945975
 Delta-g     -0.0126838   -0.0077676   -0.0027141 iso= -0.0077218
 Orientation: 
  X           0.2374198   -0.3870558    0.8909656
  Y           0.9142725    0.3989502   -0.0703174
  Z          -0.3282341    0.8312801    0.4485931

Notes:  (1) The g-matrix conforms to the "BgS" spin Hamiltonian convention. 
        (2) The principal values are square roots of the eigenvalues of g*gT.
        (3) Orientations are eigenvectors of g*gT written as column vectors.
        (4) Individual contributions are projections of the full matrices onto the eigenvectors of g*gT.
        (5) Tensor is right-handed.


Maximum memory used throughout the entire EPRNMR-calculation: 229.3 MB

Timings for individual modules:

Sum of individual times         ...     2662.766 sec (=  44.379 min)
GTO integral calculation        ...        1.640 sec (=   0.027 min)   0.1 %
Spin-Orbit-Coupling Matrices    ...       62.547 sec (=   1.042 min)   2.3 %
SCF iterations                  ...     2505.871 sec (=  41.765 min)  94.1 %
EPR/NMR calculation             ...       92.708 sec (=   1.545 min)   3.5 %
                             ****ORCA TERMINATED NORMALLY****
TOTAL RUN TIME: 0 days 0 hours 44 minutes 23 seconds 596 msec
