                  Welcome to Q-Chem
     A Quantum Leap Into The Future Of Chemistry


 Q-Chem 6.0 (devel), Q-Chem, Inc., Pleasanton, CA (2022)

 E. Epifanovsky,  A. T. B. Gilbert,  Xintian Feng,  Joonho Lee,  Yuezhi Mao,  
 N. Mardirossian,  P. Pokhilko,  A. White,  M. Wormit,  M. P. Coons,  
 A. L. Dempwolff,  Zhengting Gan,  D. Hait,  P. R. Horn,  L. D. Jacobson,  
 I. Kaliman,  J. Kussmann,  A. W. Lange,  Ka Un Lao,  D. S. Levine,  Jie Liu,  
 S. C. McKenzie,  A. F. Morrison,  K. Nanda,  F. Plasser,  D. R. Rehn,  
 M. L. Vidal,  Zhi-Qiang You,  Ying Zhu,  B. Alam,  B. Albrecht,  
 A. Aldossary,  E. Alguire,  J. H. Andersen,  V. Athavale,  D. Barton,  
 K. Begam,  A. Behn,  N. Bellonzi,  Y. A. Bernard,  E. J. Berquist,  
 H. Burton,  A. Carreras,  K. Carter-Fenk,  Romit Chakraborty,  
 Chandrima Chakravarty,  Junhan Chen,  A. D. Chien,  K. D. Closser,  
 V. Cofer-Shabica,  L. Cunha,  S. Dasgupta,  Jia Deng,  M. de Wergifosse,  
 M. Diedenhofen,  Hainam Do,  S. Ehlert,  Po-Tung Fang,  S. Fatehi,  
 Qingguo Feng,  T. Friedhoff,  B. Ganoe,  J. Gayvert,  Qinghui Ge,  
 G. Gidofalvi,  M. Goldey,  J. Gomes,  C. Gonzalez-Espinoza,  S. Gulania,  
 A. Gunina,  J. A. Gyamfi,  M. W. D. Hanson-Heine,  P. H. P. Harbach,  
 A. W. Hauser,  M. F. Herbst,  M. Hernandez Vera,  M. Hodecker,  
 Z. C. Holden,  S. Houck,  Xunkun Huang,  Kerwin Hui,  B. C. Huynh,  
 K. Ikeda,  M. Ivanov,  Hyunjun Ji,  Zuxin Jin,  Hanjie Jiang,  B. Kaduk,  
 S. Kaehler,  R. Kang,  K. Khistyaev,  Jaehoon Kim,  Yongbin Kim,  
 P. Klunzinger,  Z. Koczor-Benda,  Joong Hoon Koh,  D. Kosenkov,  
 Saikiran Kotaru,  L. Koulias,  T. Kowalczyk,  C. M. Krauter,  K. Kue,  
 A. Kunitsa,  T. Kus,  A. Landau,  K. V. Lawler,  D. Lefrancois,  S. Lehtola,  
 Rain Li,  Shaozhi Li,  Yi-Pei Li,  Jiashu Liang,  M. Liebenthal,  
 Hung-Hsuan Lin,  You-Sheng Lin,  Fenglai Liu,  Kuan-Yu Liu,  
 M. Loipersberger,  A. Luenser,  C. Malbon,  A. Manjanath,  P. Manohar,  
 E. Mansoor,  S. F. Manzer,  Shan-Ping Mao,  A. V. Marenich,  T. Markovich,  
 S. Mason,  F. Matz,  S. A. Maurer,  P. F. McLaughlin,  M. F. S. J. Menger,  
 J.-M. Mewes,  S. A. Mewes,  P. Morgante,  Mohammad Mostafanejad,  
 J. W. Mullinax,  K. J. Oosterbaan,  G. Paran,  V. Parravicini,  
 Alexander C. Paul,  Suranjan K. Paul,  F. Pavosevic,  Zheng Pei,  S. Prager,  
 E. I. Proynov,  E. Ramos,  B. Rana,  A. E. Rask,  A. Rettig,  R. M. Richard,  
 F. Rob,  E. Rossomme,  T. Scheele,  M. Scheurer,  M. Schneider,  
 P. E. Schneider,  N. Sergueev,  S. M. Sharada,  Hengyuan Shen,  
 W. Skomorowski,  D. W. Small,  C. J. Stein,  Yingli Su,  Yu-Chuan Su,  
 E. J. Sundstrom,  Zhen Tao,  J. Thirman,  Hung-Yi Tsai,  T. Tsuchimochi,  
 N. M. Tubman,  C. Utku,  S. P. Veccham,  O. Vydrov,  J. Wenzel,  
 Jonathan Wong,  J. Witte,  A. Yamada,  Chou-Hsun Yang,  Kun Yao,  
 S. Yeganeh,  S. R. Yost,  A. Zech,  F. Zeller,  Igor Ying Zhang,  
 Xing Zhang,  Yu Zhang,  D. Zuev,  A. Aspuru-Guzik,  A. T. Bell,  
 N. A. Besley,  K. B. Bravaya,  B. R. Brooks,  D. Casanova,  Jeng-Da Chai,  
 Hsing-Ta Chen,  S. Coriani,  C. J. Cramer,  A. E. DePrince, III,  
 R. A. DiStasio Jr.,  A. Dreuw,  B. D. Dunietz,  T. R. Furlani,  
 W. A. Goddard III,  S. Grimme,  S. Hammes-Schiffer,  T. Head-Gordon,  
 W. J. Hehre,  Chao-Ping Hsu,  T.-C. Jagau,  Yousung Jung,  A. Klamt,  
 Jing Kong,  D. S. Lambrecht,  Xiangyuan Li,  WanZhen Liang,  N. J. Mayhall,  
 C. W. McCurdy,  J. B. Neaton,  T. Neudecker,  C. Ochsenfeld,  
 J. A. Parkhill,  R. Peverati,  V. A. Rassolov,  Haisheng Ren,  Yihan Shao,  
 L. V. Slipchenko,  R. P. Steele,  J. E. Subotnik,  A. J. W. Thom,  
 A. Tkatchenko,  D. G. Truhlar,  T. Van Voorhis,  Fan Wang,  
 T. A. Wesolowski,  K. B. Whaley,  H. L. Woodcock III,  P. M. Zimmerman,  
 S. Faraji,  P. M. W. Gill,  M. Head-Gordon,  J. M. Herbert,  A. I. Krylov

 Contributors to earlier versions of Q-Chem not listed above: 
 R. D. Adamson,  B. Austin,  R. Baer,  J. Baker,  G. J. O. Beran,  
 K. Brandhorst,  S. T. Brown,  E. F. C. Byrd,  Arup K. Chakraborty,  
 G. K. L. Chan,  Chun-Min Chang,  Yunqing Chen,  C.-L. Cheng,  
 Siu Hung Chien,  D. M. Chipman,  D. L. Crittenden,  H. Dachsel,  
 R. J. Doerksen,  A. D. Dutoi,  R. G. Edgar,  J. Fosso-Tande,  
 L. Fusti-Molnar,  D. Ghosh,  A. Ghysels,  A. Golubeva-Zadorozhnaya,  
 J. Gonthier,  M. S. Gordon,  S. R. Gwaltney,  G. Hawkins,  J. E. Herr,  
 A. Heyden,  S. Hirata,  E. G. Hohenstein,  G. Kedziora,  F. J. Keil,  
 C. Kelley,  Jihan Kim,  R. A. King,  R. Z. Khaliullin,  P. P. Korambath,  
 W. Kurlancheek,  A. Laurent,  A. M. Lee,  M. S. Lee,  S. V. Levchenko,  
 Ching Yeh Lin,  D. Liotard,  E. Livshits,  R. C. Lochan,  I. Lotan,  
 L. A. Martinez-Martinez,  P. E. Maslen,  N. Nair,  D. P. O'Neill,  
 D. Neuhauser,  E. Neuscamman,  C. M. Oana,  R. Olivares-Amaya,  R. Olson,  
 T. M. Perrine,  B. Peters,  P. A. Pieniazek,  A. Prociuk,  Y. M. Rhee,  
 J. Ritchie,  M. A. Rohrdanz,  E. Rosta,  N. J. Russ,  H. F. Schaefer III,  
 M. W. Schmidt,  N. E. Schultz,  S. Sharma,  N. Shenvi,  C. D. Sherrill,  
 A. C. Simmonett,  A. Sodt,  T. Stein,  D. Stuck,  K. S. Thanthiriwatte,  
 V. Vanovschi,  L. Vogt,  Tao Wang,  A. Warshel,  M. A. Watson,  
 C. F. Williams,  Q. Wu,  X. Xu,  Jun Yang,  W. Zhang,  Yan Zhao

   Please cite Q-Chem as follows:
  "Software for the frontiers of quantum chemistry:
   An overview of developments in the Q-Chem 5 package"
   J. Chem. Phys. 155, 084801 (2021)
   https://doi.org/10.1063/5.0055522 (open access)

 Q-Chem 6.0.1 for Intel X86 EM64T Linux

 Parts of Q-Chem use Armadillo 9.900.5 (Nocturnal Misbehaviour).
 http://arma.sourceforge.net/

 Q-Chem begins on Wed Jan 17 21:10:11 2024  

 Host: atlas-fdr-login-01
0

     Scratch files written to ./qchem14771//
 Processing $rem in /scratch/abel/SOFTWARE/qchem/config/preferences:
 Processing $rem in /dipc/acebg/.qchemrc:
 Core orbitals will be frozen

 Checking the input file for inconsistencies... 	...done.

--------------------------------------------------------------
User input:
--------------------------------------------------------------
$comment
 RAS-SF CALCULATION
$end

$molecule
 READ h2o.molecule
$end

$rem
!**CALCULATION TYPE***     
JOBTYPE            sp    
BASIS             STO-3G

!***SCF REFERENCE***
!SKIP_SCFMAN        FALSE
!UNRESTRICTED       FALSE
!SCF_GUESS          core
!SCF_GUESS_MIX      FALSE
!SCF_GUESS_ALWAYS   FALSE
MAX_SCF_CYCLES     500
SCF_CONVERGENCE    10
!SCF_ALGORITHM      DIIS !DIIS,DM,DIIS_DM,GDM,DIIS_GDM,GD

!SYMMETRY           TRUE   !use of symmetry for calculating integrals
!SYM_IGNORE         FALSE  !turn off using symmetry
!SYM_TOL            5      !tolerance for determining point group
!USE_ABELIAN_SUBGROUP      !define to use abelian group

!THRESH             14
SCF_FINAL_PRINT     1 !0,1,2,3

!****CCSD****
CORRELATION        CCSD
!CC_CONVERGENCE     6
!CC_MAX_ITER        200
CC_PRINT	   2
!CHOLESKY_TOL       3 !Toler. decomposition 2e integrals
CC_REF_PROP  	   1 !one-particle CCSD properties calculation
!CC_REF_PROP_TE	   0 !two-particle CCSD properties calculation
!CC_MEMORY	   5600
!CC_FNO_THRESH
!CC_BACKEND	   XM !Used to specify the computational back-end of CCMAN2.

!****EOM****
METHOD             EOM-MP2
IP_STATES	   [5,5,5,5]
CC_STATE_TO_OPT    [4,1]
CC_EOM_PROP        1
CC_EOM_PROP_TE	   1
CC_TRANS_PROP      1
CALC_SOC           TRUE   !calculate SOC for EOM-CC, RAS-CI, ADC, TDDFT/TDA and TDDFT

!****MEMORY****
!MEM_TOTAL          70000 !Default 2000 MB
!MEM_STATIC         20000  !Default 64 MB

!**Molecular Properties and Analysis **                                                                                          
!POP_MULLIKEN       TRUE   !Run Mulliken population analysis
!LOWDIN_POPULATION  TRUE   !Run Löwdin population analysis
GUI                0       !Checkpoints generation
!STATE_ANALYSIS     TRUE

!**Wave function analysis of RAS-CI states: MOLDEN**
!PLOTS = 0     ! Note: This can be omitted, default is 0
!NTO_PAIRS = 2 ! Note: This can be omitted, default is 2
!GUI 0
!MOLDEN_FORMAT      TRUE
!PRINT_ORBITALS     15

!**Wave function analysis of RAS-CI state: CUBE**
!NTO_PAIRS = 2 ! Note: This can be omitted, default is 2
!PLOTS = 1
!GUI 0

!**SR-DFT**
!RAS_SRDFT           TRUE !Perform short-range density functional RAS-CI
!RAS_SRDFT_EXC       0 !EX functional. 0=HF. 
!RAS_SRDFT_ONLY_COR  TRUE !No use of EXC functional
!RAS_SRDFT_COR       srPBE !short-range correlation functional
!ras_srdft_0         TRUE !true: no iteration (one-shot); false: iteration
!RAS_OMEGA           400 !Coulomb range-separation parameter. def=400
!RAS_SRDFT_DAMP     0.5 !dumping factor. def=0.5
$end

!$plots
!   grid_points 100 100 100
!   grid_range  (-10,10) (-10,10) (-10,10)
!$end

--------------------------------------------------------------
 ----------------------------------------------------------------
             Standard Nuclear Orientation (Angstroms)
    I     Atom           X                Y                Z
 ----------------------------------------------------------------
    1      O       0.0000000000     0.0000000000     0.1155512138
    2      H      -0.8125311840    -0.0000000000    -0.4622048550
    3      H       0.8125311840    -0.0000000000    -0.4622048550
 ----------------------------------------------------------------
 Molecular Point Group                 C2v   NOp =  4
 Largest Abelian Subgroup              C2v   NOp =  4
 Nuclear Repulsion Energy =           8.81794733 hartrees
 There are        5 alpha and        4 beta electrons
 Requested basis set is STO-3G
 There are 4 shells and 7 basis functions
 Total memory of 2000 MB is distributed as follows: 
   MEM_STATIC is set to 192 MB
   QALLOC/CCMAN JOB total memory use is  1808 MB
 Warning: actual memory use might exceed 2000 MB

 Total QAlloc Memory Limit   2000 MB
 Mega-Array Size       188 MB
 MEM_STATIC part       192 MB


                       Distance Matrix (Angstroms)
             O (  1)   H (  2)
   H (  2)  0.997000
   H (  3)  0.997000  1.625062
 
 A cutoff of  1.0D-14 yielded     10 shell pairs
 There are        34 function pairs
 Smallest overlap matrix eigenvalue = 3.69E-01

 Scale SEOQF with 1.000000e+00/1.000000e+00/1.000000e+00

 Standard Electronic Orientation quadrupole field applied
 Nucleus-field energy     =    -0.0000000001 hartrees
 Guess from superposition of atomic densities
 Warning:  Energy on first SCF cycle will be non-variational
 SAD guess density has 10.000000 electrons

 -----------------------------------------------------------------------
  General SCF calculation program by
  Eric Jon Sundstrom, Paul Horn, Yuezhi Mao, Dmitri Zuev, Alec White,
  David Stuck, Shaama M.S., Shane Yost, Joonho Lee, David Small,
  Daniel Levine, Susi Lehtola, Hugh Burton, Evgeny Epifanovsky,
  Bang C. Huynh
 -----------------------------------------------------------------------
 Hartree-Fock
 A unrestricted SCF calculation will be
 performed using DIIS
 SCF converges when DIIS error is below 1.0e-10
 ---------------------------------------
  Cycle       Energy         DIIS error
 ---------------------------------------
    1     -74.5817223679      1.95e-01  
    2     -74.6523007637      2.13e-02  
    3     -74.6662090430      3.64e-03  
    4     -74.6668295522      1.72e-03  
    5     -74.6670469440      6.47e-04  
    6     -74.6670902561      1.17e-04  
    7     -74.6670915692      3.10e-05  
    8     -74.6670916481      3.06e-06  
    9     -74.6670916487      3.53e-07  
   10     -74.6670916487      1.64e-08  
   11     -74.6670916487      2.96e-10  
   12     -74.6670916487      6.75e-13  Convergence criterion met
 ---------------------------------------
 Alpha HF Exchange    Energy =  -4.65734285947945
 Beta HF Exchange     Energy =  -3.90696248859969
 Nuclear Attraction   Energy =   0.00000000000000
 One-Electron (alpha) Energy = -61.84782950676390
 One-Electron (beta)  Energy = -54.07915252614465
 Total Coulomb        Energy =  41.00624840629270
 Final Alpha MO Eigenvalues
            1           2           3           4           5           6
    1 -21.0129134  -1.8940813  -1.1758384  -1.0976275  -1.0430096   0.0503336
            7
    1   0.1751749
 Final Beta MO Eigenvalues
            1           2           3           4           5           6
    1 -20.9817584  -1.7206733  -1.1334056  -0.9837885  -0.2088769   0.0801412
            7
    1   0.1961620
 SCF time:   CPU 0.10s  wall 0.00s 
<S^2> =          0.756272712
 SCF   energy in the final basis set =      -74.6670916487
 Total energy in the final basis set =      -74.6670916487
 mp2 is not implemented in computing transition properties!


 ------------------------------------------------------------------------------

   CCMAN2: suite of methods based on coupled cluster
           and equation of motion theories.

   Components:
   * libvmm-1.3-trunk
     by Evgeny Epifanovsky, Ilya Kaliman.
   * libtensor-2.5-trunk
     by Evgeny Epifanovsky, Michael Wormit, Dmitry Zuev, Sam Manzer, 
        Ilya Kaliman.
   * libcc-2.5-trunk
     by Evgeny Epifanovsky, Arik Landau, Tomasz Kus, Kirill Khistyaev, 
        Dmitry Zuev, Prashant Manohar, Xintian Feng, Anna Krylov, 
        Matthew Goldey, Alec White, Thomas Jagau, Kaushik Nanda, 
        Anastasia Gunina, Alexander Kunitsa, Joonho Lee.

   CCMAN original authors:
   Anna I. Krylov, C. David Sherrill, Steven R. Gwaltney,
   Edward F. C. Byrd (2000)
   Sergey V. Levchenko, Lyudmila V. Slipchenko, Tao Wang,
   Ana-Maria C. Cristian (2003)
   Piotr A. Pieniazek, C. Melania Oana, Evgeny Epifanovsky (2007)
   Prashant Manohar (2009)

 ------------------------------------------------------------------------------


 Allocating and initializing 1808MB of RAM...
 Calculation will run on 1 core.

 
 Alpha MOs, Unrestricted
 -- Occupied --                  
-21.013  -1.894  -1.176  -1.098  -1.043
  1 A1    2 A1    1 B1    1 B2    3 A1                                         
 -- Virtual --                   
  0.050   0.175
  4 A1    2 B1                                                                 
 
 Beta MOs, Unrestricted
 -- Occupied --                  
-20.982  -1.721  -1.133  -0.984
  1 A1    2 A1    1 B1    3 A1                                                 
 -- Virtual --                   
 -0.209   0.080   0.196
  1 B2    4 A1    2 B1                                                         

 Occupation and symmetry of molecular orbitals

 Point group: C2v (4 irreducible representations).

                           A1   A2   B1   B2    All 
 ----------------------------------------------------
 All molecular orbitals:
  - Alpha                  4    0    2    1     7   
  - Beta                   4    0    2    1     7   
 ----------------------------------------------------
 Alpha orbitals:
  - Frozen occupied        1    0    0    0     1   
  - Active occupied        2    0    1    1     4   
  - Active virtual         1    0    1    0     2   
  - Frozen virtual         0    0    0    0     0   
 ----------------------------------------------------
 Beta orbitals:
  - Frozen occupied        1    0    0    0     1   
  - Active occupied        2    0    1    0     3   
  - Active virtual         1    0    1    1     3   
  - Frozen virtual         0    0    0    0     0   
 ----------------------------------------------------

 Import integrals:   CPU 0.00 s  wall 0.00 s

 Import integrals:   CPU 0.06 s  wall 0.12 s

 Computing CCSD intermediates for later calculations in double precision
 Finished.

 MP2 amplitudes:   CPU 0.14 s  wall 0.20 s

        Solving for EOMIP-CCSD A1 transitions.

Warning! Not enough singles to form guess subspace. Doubles guess vectors will be generated.
In case of poor EOM convergence, reduce requested IP_STATES.

Running a double precision version
      EOMIP-CCSD/MP2 right amplitudes will be solved using Davidson.
        Amplitudes will be solved using standard  algorithm.
     Hard-coded thresholds: 
     LinDepThresh=1.00e-15  NormThresh=1.00e-06  ReorthogonThresh=1.00e-02

      Roots     MaxVec    MaxIter   Precond   Conv      Shift    
      5         120       60        1         1.00e-05  0.00e+00  
 ------------------------------------------------------------------------------
      Iter ConvRoots NVecs ResNorm^2 Current eigenvalues (eV)
 ------------------------------------------------------------------------------
      0    0      5     5.08e-02   26.8639   29.8716   51.6196   53.5692   72.6507   
      1    0      10    1.52e-02   25.9033   29.3403   47.4720   51.6138   55.1870   
      2    2      15    2.27e-04   25.8646*  29.3257*  46.1100   49.1866   50.3914   
      3    5      16    5.18e-30   25.8646*  29.3257*  46.0782*  49.1812*  50.3905*  

     Davidson procedure converged

 EOMIP transition 1/A1
 Total energy = -73.74559445 a.u.  Excitation energy = 25.8646 eV.
 R1^2 = 0.7351  R2^2 = 0.2649  Res^2 = 4.10e-30
 Conv-d = yes

 Amplitude    Transitions between orbitals
  0.8562       3 (A1) A                  ->    infty        
 -0.0438       2 (A1) A                  ->    infty        

              Summary of significant orbitals:

               Number  Type             Irrep      Energy
               2       Occ  Alpha       2 (A1)     -1.8941
               5       Occ  Alpha       3 (A1)     -1.0430


 EOMIP transition 2/A1
 Total energy = -73.61840171 a.u.  Excitation energy = 29.3257 eV.
 R1^2 = 0.2145  R2^2 = 0.7855  Res^2 = 1.79e-30
 Conv-d = yes

 Amplitude    Transitions between orbitals
 -0.8771       1 (B2) A      3 (A1) B    ->    1 (B2) B     
  0.8771       3 (A1) B      1 (B2) A    ->    1 (B2) B     
  0.0721       3 (A1) A      1 (B1) B    ->    2 (B1) B     
 -0.0721       1 (B1) B      3 (A1) A    ->    2 (B1) B     

              Summary of significant orbitals:

               Number  Type             Irrep      Energy
               5       Occ  Alpha       3 (A1)     -1.0430
               4       Occ  Alpha       1 (B2)     -1.0976
               4       Occ  Beta        3 (A1)     -0.9838
               3       Occ  Beta        1 (B1)     -1.1334
               7       Vir  Beta        2 (B1)      0.1962
               5       Vir  Beta        1 (B2)     -0.2089


 EOMIP transition 3/A1
 Total energy = -73.00275889 a.u.  Excitation energy = 46.0782 eV.
 R1^2 = 0.5463  R2^2 = 0.4537  Res^2 = 4.27e-30
 Conv-d = yes

 Amplitude    Transitions between orbitals
  0.7365       2 (A1) A                  ->    infty        
  0.0621       3 (A1) A                  ->    infty        
 -0.6222       1 (B2) A      2 (A1) B    ->    1 (B2) B     
  0.6222       2 (A1) B      1 (B2) A    ->    1 (B2) B     
 -0.1724       1 (B1) A      3 (A1) B    ->    2 (B1) B     
  0.1724       3 (A1) B      1 (B1) A    ->    2 (B1) B     

              Summary of significant orbitals:

               Number  Type             Irrep      Energy
               2       Occ  Alpha       2 (A1)     -1.8941
               5       Occ  Alpha       3 (A1)     -1.0430
               3       Occ  Alpha       1 (B1)     -1.1758
               4       Occ  Alpha       1 (B2)     -1.0976
               2       Occ  Beta        2 (A1)     -1.7207
               4       Occ  Beta        3 (A1)     -0.9838
               7       Vir  Beta        2 (B1)      0.1962
               5       Vir  Beta        1 (B2)     -0.2089


 EOMIP transition 4/A1
 Total energy = -72.88872732 a.u.  Excitation energy = 49.1812 eV.
 R1^2 = 0.0012  R2^2 = 0.9988  Res^2 = 7.47e-30
 Conv-d = yes

 Amplitude    Transitions between orbitals
 -0.6838       1 (B1) A      3 (A1) B    ->    2 (B1) B     
  0.6838       3 (A1) B      1 (B1) A    ->    2 (B1) B     
 -0.5366       3 (A1) A      1 (B1) B    ->    2 (B1) B     
  0.5366       1 (B1) B      3 (A1) A    ->    2 (B1) B     
 -0.4127       3 (A1) A      1 (B1) A    ->    2 (B1) A     
  0.4127       1 (B1) A      3 (A1) A    ->    2 (B1) A     
 -0.1998       3 (A1) A      3 (A1) B    ->    4 (A1) B     
  0.1998       3 (A1) B      3 (A1) A    ->    4 (A1) B     
 -0.1386       2 (A1) A      3 (A1) B    ->    4 (A1) B     
  0.1386       3 (A1) B      2 (A1) A    ->    4 (A1) B     

              Summary of significant orbitals:

               Number  Type             Irrep      Energy
               2       Occ  Alpha       2 (A1)     -1.8941
               5       Occ  Alpha       3 (A1)     -1.0430
               3       Occ  Alpha       1 (B1)     -1.1758
               4       Occ  Beta        3 (A1)     -0.9838
               3       Occ  Beta        1 (B1)     -1.1334
               7       Vir  Alpha       2 (B1)      0.1752
               6       Vir  Beta        4 (A1)      0.0801
               7       Vir  Beta        2 (B1)      0.1962


 EOMIP transition 5/A1
 Total energy = -72.84428549 a.u.  Excitation energy = 50.3905 eV.
 R1^2 = 0.0053  R2^2 = 0.9947  Res^2 = 8.26e-30
 Conv-d = yes

 Amplitude    Transitions between orbitals
 -0.7646       3 (A1) A      3 (A1) B    ->    4 (A1) B     
  0.7646       3 (A1) B      3 (A1) A    ->    4 (A1) B     
  0.4667       3 (A1) A      1 (B1) A    ->    2 (B1) A     
 -0.4667       1 (B1) A      3 (A1) A    ->    2 (B1) A     
  0.2165       3 (A1) A      1 (B1) B    ->    2 (B1) B     
 -0.2165       1 (B1) B      3 (A1) A    ->    2 (B1) B     
 -0.2043       1 (B1) A      3 (A1) B    ->    2 (B1) B     
  0.2043       3 (A1) B      1 (B1) A    ->    2 (B1) B     
 -0.1960       1 (B1) A      1 (B1) B    ->    4 (A1) B     
  0.1960       1 (B1) B      1 (B1) A    ->    4 (A1) B     
 -0.1624       2 (A1) A      3 (A1) B    ->    4 (A1) B     
  0.1624       3 (A1) B      2 (A1) A    ->    4 (A1) B     
 -0.1383       3 (A1) A      2 (A1) B    ->    4 (A1) B     
  0.1383       2 (A1) B      3 (A1) A    ->    4 (A1) B     
  0.1080       2 (A1) A      3 (A1) A    ->    4 (A1) A     
 -0.1080       3 (A1) A      2 (A1) A    ->    4 (A1) A     

              Summary of significant orbitals:

               Number  Type             Irrep      Energy
               2       Occ  Alpha       2 (A1)     -1.8941
               5       Occ  Alpha       3 (A1)     -1.0430
               3       Occ  Alpha       1 (B1)     -1.1758
               2       Occ  Beta        2 (A1)     -1.7207
               4       Occ  Beta        3 (A1)     -0.9838
               3       Occ  Beta        1 (B1)     -1.1334
               6       Vir  Alpha       4 (A1)      0.0503
               7       Vir  Alpha       2 (B1)      0.1752
               6       Vir  Beta        4 (A1)      0.0801
               7       Vir  Beta        2 (B1)      0.1962


Running a double precision version
      EOMIP-CCSD/MP2 left amplitudes will be solved using Davidson.
        Amplitudes will be solved using MOM  algorithm.
     Hard-coded thresholds: 
     LinDepThresh=1.00e-15  NormThresh=1.00e-06  ReorthogonThresh=1.00e-02

      Roots     MaxVec    MaxIter   Precond   Conv      Shift    
      5         120       60        1         1.00e-05  0.00e+00  
 ------------------------------------------------------------------------------
      Iter ConvRoots NVecs ResNorm^2 Current eigenvalues (eV)
 ------------------------------------------------------------------------------
      0    2      5     2.09e-04   25.8646   29.3257   46.0782   49.1812*  50.3905*  
      1    3      7     9.65e-06   25.8646   29.3257*  46.0782   49.1812*  50.3905*  
      2    5      9     2.77e-06   25.8646*  29.3257*  46.0782*  49.1812*  50.3905*  

     Davidson procedure converged

 EOMIP-CCSD transition 1/A1
S^2 calculation will be performed in  double precision
 EOMIP-CCSD transition 2/A1
S^2 calculation will be performed in  double precision
 EOMIP-CCSD transition 3/A1
S^2 calculation will be performed in  double precision
 EOMIP-CCSD transition 4/A1
S^2 calculation will be performed in  double precision
 EOMIP-CCSD transition 5/A1
S^2 calculation will be performed in  double precision
 Excited state properties for  EOMIP-CCSD transition 1/A1
 Dipole moment (a.u.): 0.792486 (X 0.000000, Y 0.000000, Z -0.792486)
 R-squared (a.u.): 11.693756 (XX 4.964348, YY 3.051424, ZZ 3.677985)
 Gauge origin (a.u.): (0.000000, 0.000000, 0.000000)
 Angular momentum (a.u.) against gauge origin: 
 (X 0.000000i, Y 0.000000i, Z 0.000000i)
 Traces of the OPDMs: Tr(AA) 4.000000, Tr(BB) 4.000000
 <S^2> = 1.824678

 Excited state properties for  EOMIP-CCSD transition 2/A1
 Dipole moment (a.u.): 0.720038 (X 0.000000, Y 0.000000, Z -0.720038)
 R-squared (a.u.): 12.382286 (XX 5.399822, YY 3.113422, ZZ 3.869042)
 Gauge origin (a.u.): (0.000000, 0.000000, 0.000000)
 Angular momentum (a.u.) against gauge origin: 
 (X 0.000000i, Y 0.000000i, Z 0.000000i)
 Traces of the OPDMs: Tr(AA) 4.000000, Tr(BB) 4.000000
 <S^2> = 0.195762

 Excited state properties for  EOMIP-CCSD transition 3/A1
 Dipole moment (a.u.): 1.202934 (X 0.000000, Y 0.000000, Z -1.202934)
 R-squared (a.u.): 12.429851 (XX 5.125541, YY 2.914055, ZZ 4.390255)
 Gauge origin (a.u.): (0.000000, 0.000000, 0.000000)
 Angular momentum (a.u.) against gauge origin: 
 (X 0.000000i, Y 0.000000i, Z 0.000000i)
 Traces of the OPDMs: Tr(AA) 4.000000, Tr(BB) 4.000000
 <S^2> = 1.932726

 Excited state properties for  EOMIP-CCSD transition 4/A1
 Dipole moment (a.u.): 0.125720 (X 0.000000, Y 0.000000, Z -0.125720)
 R-squared (a.u.): 14.567652 (XX 6.795537, YY 3.193380, ZZ 4.578735)
 Gauge origin (a.u.): (0.000000, 0.000000, 0.000000)
 Angular momentum (a.u.) against gauge origin: 
 (X 0.000000i, Y 0.000000i, Z 0.000000i)
 Traces of the OPDMs: Tr(AA) 4.000000, Tr(BB) 4.000000
 <S^2> = 3.743063

 Excited state properties for  EOMIP-CCSD transition 5/A1
 Dipole moment (a.u.): 0.042414 (X 0.000000, Y 0.000000, Z 0.042414)
 R-squared (a.u.): 15.305614 (XX 7.488849, YY 3.329344, ZZ 4.487421)
 Gauge origin (a.u.): (0.000000, 0.000000, 0.000000)
 Angular momentum (a.u.) against gauge origin: 
 (X 0.000000i, Y 0.000000i, Z 0.000000i)
 Traces of the OPDMs: Tr(AA) 4.000000, Tr(BB) 4.000000
 <S^2> = 1.243541

        Solving for EOMIP-CCSD A2 transitions.

Warning! Not enough singles to form guess subspace. Doubles guess vectors will be generated.
In case of poor EOM convergence, reduce requested IP_STATES.

Running a double precision version
      EOMIP-CCSD/MP2 right amplitudes will be solved using Davidson.
        Amplitudes will be solved using standard  algorithm.
     Hard-coded thresholds: 
     LinDepThresh=1.00e-15  NormThresh=1.00e-06  ReorthogonThresh=1.00e-02

      Roots     MaxVec    MaxIter   Precond   Conv      Shift    
      5         120       60        1         1.00e-05  0.00e+00  
 ------------------------------------------------------------------------------
      Iter ConvRoots NVecs ResNorm^2 Current eigenvalues (eV)
 ------------------------------------------------------------------------------
      0    0      5     5.97e-03   32.8380   35.0989   51.6618   53.0151   56.2999   
      1    5      10    6.20e-30   32.7840*  35.0512*  50.1459*  52.2270*  54.0532*  

     Davidson procedure converged

 EOMIP transition 1/A2
 Total energy = -73.49131141 a.u.  Excitation energy = 32.7840 eV.
 R1^2 = 0.0000  R2^2 = 1.0000  Res^2 = 3.05e-30
 Conv-d = yes

 Amplitude    Transitions between orbitals
  0.7288       3 (A1) A      1 (B1) B    ->    1 (B2) B     
 -0.7288       1 (B1) B      3 (A1) A    ->    1 (B2) B     
  0.6825       1 (B1) A      3 (A1) B    ->    1 (B2) B     
 -0.6825       3 (A1) B      1 (B1) A    ->    1 (B2) B     

              Summary of significant orbitals:

               Number  Type             Irrep      Energy
               5       Occ  Alpha       3 (A1)     -1.0430
               3       Occ  Alpha       1 (B1)     -1.1758
               4       Occ  Beta        3 (A1)     -0.9838
               3       Occ  Beta        1 (B1)     -1.1334
               5       Vir  Beta        1 (B2)     -0.2089


 EOMIP transition 2/A2
 Total energy = -73.40799490 a.u.  Excitation energy = 35.0512 eV.
 R1^2 = 0.0000  R2^2 = 1.0000  Res^2 = 2.19e-30
 Conv-d = yes

 Amplitude    Transitions between orbitals
  0.7301       1 (B1) A      3 (A1) B    ->    1 (B2) B     
 -0.7301       3 (A1) B      1 (B1) A    ->    1 (B2) B     
 -0.6813       3 (A1) A      1 (B1) B    ->    1 (B2) B     
  0.6813       1 (B1) B      3 (A1) A    ->    1 (B2) B     

              Summary of significant orbitals:

               Number  Type             Irrep      Energy
               5       Occ  Alpha       3 (A1)     -1.0430
               3       Occ  Alpha       1 (B1)     -1.1758
               4       Occ  Beta        3 (A1)     -0.9838
               3       Occ  Beta        1 (B1)     -1.1334
               5       Vir  Beta        1 (B2)     -0.2089


 EOMIP transition 3/A2
 Total energy = -72.85327245 a.u.  Excitation energy = 50.1459 eV.
 R1^2 = 0.0000  R2^2 = 1.0000  Res^2 = 1.85e-29
 Conv-d = yes

 Amplitude    Transitions between orbitals
 -0.5870       1 (B2) A      1 (B1) B    ->    4 (A1) B     
  0.5870       1 (B1) B      1 (B2) A    ->    4 (A1) B     
 -0.4530       1 (B1) A      1 (B2) A    ->    4 (A1) A     
  0.4530       1 (B2) A      1 (B1) A    ->    4 (A1) A     
  0.4493       1 (B2) A      3 (A1) B    ->    2 (B1) B     
 -0.4493       3 (A1) B      1 (B2) A    ->    2 (B1) B     
  0.3678       3 (A1) A      1 (B2) A    ->    2 (B1) A     
 -0.3678       1 (B2) A      3 (A1) A    ->    2 (B1) A     
  0.2336       2 (A1) A      1 (B1) B    ->    1 (B2) B     
 -0.2336       1 (B1) B      2 (A1) A    ->    1 (B2) B     
  0.2095       1 (B1) A      2 (A1) B    ->    1 (B2) B     
 -0.2095       2 (A1) B      1 (B1) A    ->    1 (B2) B     

              Summary of significant orbitals:

               Number  Type             Irrep      Energy
               2       Occ  Alpha       2 (A1)     -1.8941
               5       Occ  Alpha       3 (A1)     -1.0430
               3       Occ  Alpha       1 (B1)     -1.1758
               4       Occ  Alpha       1 (B2)     -1.0976
               2       Occ  Beta        2 (A1)     -1.7207
               4       Occ  Beta        3 (A1)     -0.9838
               3       Occ  Beta        1 (B1)     -1.1334
               6       Vir  Alpha       4 (A1)      0.0503
               7       Vir  Alpha       2 (B1)      0.1752
               6       Vir  Beta        4 (A1)      0.0801
               7       Vir  Beta        2 (B1)      0.1962
               5       Vir  Beta        1 (B2)     -0.2089


 EOMIP transition 4/A2
 Total energy = -72.77679347 a.u.  Excitation energy = 52.2270 eV.
 R1^2 = 0.0000  R2^2 = 1.0000  Res^2 = 1.81e-30
 Conv-d = yes

 Amplitude    Transitions between orbitals
 -0.6823       1 (B2) A      3 (A1) B    ->    2 (B1) B     
  0.6823       3 (A1) B      1 (B2) A    ->    2 (B1) B     
 -0.3746       1 (B2) A      1 (B1) B    ->    4 (A1) B     
  0.3746       1 (B1) B      1 (B2) A    ->    4 (A1) B     
 -0.3684       3 (A1) A      1 (B2) A    ->    2 (B1) A     
  0.3684       1 (B2) A      3 (A1) A    ->    2 (B1) A     
  0.3538       2 (A1) A      1 (B1) B    ->    1 (B2) B     
 -0.3538       1 (B1) B      2 (A1) A    ->    1 (B2) B     
  0.3246       1 (B1) A      2 (A1) B    ->    1 (B2) B     
 -0.3246       2 (A1) B      1 (B1) A    ->    1 (B2) B     
 -0.1628       1 (B1) A      1 (B2) A    ->    4 (A1) A     
  0.1628       1 (B2) A      1 (B1) A    ->    4 (A1) A     

              Summary of significant orbitals:

               Number  Type             Irrep      Energy
               2       Occ  Alpha       2 (A1)     -1.8941
               5       Occ  Alpha       3 (A1)     -1.0430
               3       Occ  Alpha       1 (B1)     -1.1758
               4       Occ  Alpha       1 (B2)     -1.0976
               2       Occ  Beta        2 (A1)     -1.7207
               4       Occ  Beta        3 (A1)     -0.9838
               3       Occ  Beta        1 (B1)     -1.1334
               6       Vir  Alpha       4 (A1)      0.0503
               7       Vir  Alpha       2 (B1)      0.1752
               6       Vir  Beta        4 (A1)      0.0801
               7       Vir  Beta        2 (B1)      0.1962
               5       Vir  Beta        1 (B2)     -0.2089


 EOMIP transition 5/A2
 Total energy = -72.70968155 a.u.  Excitation energy = 54.0532 eV.
 R1^2 = 0.0000  R2^2 = 1.0000  Res^2 = 5.47e-30
 Conv-d = yes

 Amplitude    Transitions between orbitals
  0.4917       3 (A1) A      1 (B2) A    ->    2 (B1) A     
 -0.4917       1 (B2) A      3 (A1) A    ->    2 (B1) A     
 -0.4664       1 (B1) A      2 (A1) B    ->    1 (B2) B     
  0.4664       2 (A1) B      1 (B1) A    ->    1 (B2) B     
 -0.4573       1 (B2) A      1 (B1) B    ->    4 (A1) B     
  0.4573       1 (B1) B      1 (B2) A    ->    4 (A1) B     
 -0.4426       1 (B2) A      3 (A1) B    ->    2 (B1) B     
  0.4426       3 (A1) B      1 (B2) A    ->    2 (B1) B     
 -0.3186       2 (A1) A      1 (B1) B    ->    1 (B2) B     
  0.3186       1 (B1) B      2 (A1) A    ->    1 (B2) B     
  0.1795       1 (B1) A      1 (B2) A    ->    4 (A1) A     
 -0.1795       1 (B2) A      1 (B1) A    ->    4 (A1) A     

              Summary of significant orbitals:

               Number  Type             Irrep      Energy
               2       Occ  Alpha       2 (A1)     -1.8941
               5       Occ  Alpha       3 (A1)     -1.0430
               3       Occ  Alpha       1 (B1)     -1.1758
               4       Occ  Alpha       1 (B2)     -1.0976
               2       Occ  Beta        2 (A1)     -1.7207
               4       Occ  Beta        3 (A1)     -0.9838
               3       Occ  Beta        1 (B1)     -1.1334
               6       Vir  Alpha       4 (A1)      0.0503
               7       Vir  Alpha       2 (B1)      0.1752
               6       Vir  Beta        4 (A1)      0.0801
               7       Vir  Beta        2 (B1)      0.1962
               5       Vir  Beta        1 (B2)     -0.2089


Running a double precision version
      EOMIP-CCSD/MP2 left amplitudes will be solved using Davidson.
        Amplitudes will be solved using MOM  algorithm.
     Hard-coded thresholds: 
     LinDepThresh=1.00e-15  NormThresh=1.00e-06  ReorthogonThresh=1.00e-02

      Roots     MaxVec    MaxIter   Precond   Conv      Shift    
      5         120       60        1         1.00e-05  0.00e+00  
 ------------------------------------------------------------------------------
      Iter ConvRoots NVecs ResNorm^2 Current eigenvalues (eV)
 ------------------------------------------------------------------------------
      0    5      5     5.16e-07   32.7840*  35.0512*  50.1459*  52.2270*  54.0532*  

     Davidson procedure converged

 EOMIP-CCSD transition 1/A2
S^2 calculation will be performed in  double precision
 EOMIP-CCSD transition 2/A2
S^2 calculation will be performed in  double precision
 EOMIP-CCSD transition 3/A2
S^2 calculation will be performed in  double precision
 EOMIP-CCSD transition 4/A2
S^2 calculation will be performed in  double precision
 EOMIP-CCSD transition 5/A2
S^2 calculation will be performed in  double precision
 Excited state properties for  EOMIP-CCSD transition 1/A2
 Dipole moment (a.u.): 0.877205 (X 0.000000, Y 0.000000, Z -0.877205)
 R-squared (a.u.): 11.584804 (XX 4.262575, YY 3.632343, ZZ 3.689886)
 Gauge origin (a.u.): (0.000000, 0.000000, 0.000000)
 Angular momentum (a.u.) against gauge origin: 
 (X 0.000000i, Y 0.000000i, Z 0.000000i)
 Traces of the OPDMs: Tr(AA) 4.000000, Tr(BB) 4.000000
 <S^2> = 1.999065

 Excited state properties for  EOMIP-CCSD transition 2/A2
 Dipole moment (a.u.): 0.877489 (X 0.000000, Y 0.000000, Z -0.877489)
 R-squared (a.u.): 11.594897 (XX 4.268942, YY 3.633223, ZZ 3.692733)
 Gauge origin (a.u.): (0.000000, 0.000000, 0.000000)
 Angular momentum (a.u.) against gauge origin: 
 (X 0.000000i, Y 0.000000i, Z 0.000000i)
 Traces of the OPDMs: Tr(AA) 4.000000, Tr(BB) 4.000000
 <S^2> = 0.006846

 Excited state properties for  EOMIP-CCSD transition 3/A2
 Dipole moment (a.u.): 0.195741 (X 0.000000, Y 0.000000, Z -0.195741)
 R-squared (a.u.): 15.208362 (XX 7.147003, YY 2.830323, ZZ 5.231036)
 Gauge origin (a.u.): (0.000000, 0.000000, 0.000000)
 Angular momentum (a.u.) against gauge origin: 
 (X 0.000000i, Y 0.000000i, Z 0.000000i)
 Traces of the OPDMs: Tr(AA) 4.000000, Tr(BB) 4.000000
 <S^2> = 1.972037

 Excited state properties for  EOMIP-CCSD transition 4/A2
 Dipole moment (a.u.): 0.211834 (X 0.000000, Y 0.000000, Z -0.211834)
 R-squared (a.u.): 14.707020 (XX 6.995532, YY 2.882361, ZZ 4.829128)
 Gauge origin (a.u.): (0.000000, 0.000000, 0.000000)
 Angular momentum (a.u.) against gauge origin: 
 (X 0.000000i, Y 0.000000i, Z 0.000000i)
 Traces of the OPDMs: Tr(AA) 4.000000, Tr(BB) 4.000000
 <S^2> = 1.854955

 Excited state properties for  EOMIP-CCSD transition 5/A2
 Dipole moment (a.u.): 0.397870 (X 0.000000, Y 0.000000, Z -0.397870)
 R-squared (a.u.): 14.399590 (XX 6.584367, YY 2.961287, ZZ 4.853937)
 Gauge origin (a.u.): (0.000000, 0.000000, 0.000000)
 Angular momentum (a.u.) against gauge origin: 
 (X 0.000000i, Y 0.000000i, Z 0.000000i)
 Traces of the OPDMs: Tr(AA) 4.000000, Tr(BB) 4.000000
 <S^2> = 0.702162

        Solving for EOMIP-CCSD B1 transitions.

Warning! Not enough singles to form guess subspace. Doubles guess vectors will be generated.
In case of poor EOM convergence, reduce requested IP_STATES.

Running a double precision version
      EOMIP-CCSD/MP2 right amplitudes will be solved using Davidson.
        Amplitudes will be solved using standard  algorithm.
     Hard-coded thresholds: 
     LinDepThresh=1.00e-15  NormThresh=1.00e-06  ReorthogonThresh=1.00e-02

      Roots     MaxVec    MaxIter   Precond   Conv      Shift    
      5         120       60        1         1.00e-05  0.00e+00  
 ------------------------------------------------------------------------------
      Iter ConvRoots NVecs ResNorm^2 Current eigenvalues (eV)
 ------------------------------------------------------------------------------
      0    0      5     1.99e-02   31.4111   33.2419   50.6679   52.9116   72.8941   
      1    0      10    1.55e-02   30.7679   32.9008   49.2135   52.4099   60.7734   
      2    5      14    8.27e-30   30.7311*  32.8919*  48.7392*  50.8141*  52.9202*  

     Davidson procedure converged

 EOMIP transition 1/B1
 Total energy = -73.56675437 a.u.  Excitation energy = 30.7311 eV.
 R1^2 = 0.7070  R2^2 = 0.2930  Res^2 = 1.84e-30
 Conv-d = yes

 Amplitude    Transitions between orbitals
 -0.8408       1 (B1) A                  ->    infty        

              Summary of significant orbitals:

               Number  Type             Irrep      Energy
               3       Occ  Alpha       1 (B1)     -1.1758


 EOMIP transition 2/B1
 Total energy = -73.48734607 a.u.  Excitation energy = 32.8919 eV.
 R1^2 = 0.2608  R2^2 = 0.7392  Res^2 = 7.69e-30
 Conv-d = yes

 Amplitude    Transitions between orbitals
  0.8548       1 (B2) A      1 (B1) B    ->    1 (B2) B     
 -0.8548       1 (B1) B      1 (B2) A    ->    1 (B2) B     
 -0.0427       2 (A1) A      1 (B1) B    ->    4 (A1) B     
  0.0427       1 (B1) B      2 (A1) A    ->    4 (A1) B     

              Summary of significant orbitals:

               Number  Type             Irrep      Energy
               2       Occ  Alpha       2 (A1)     -1.8941
               4       Occ  Alpha       1 (B2)     -1.0976
               3       Occ  Beta        1 (B1)     -1.1334
               6       Vir  Beta        4 (A1)      0.0801
               5       Vir  Beta        1 (B2)     -0.2089


 EOMIP transition 3/B1
 Total energy = -72.90496791 a.u.  Excitation energy = 48.7392 eV.
 R1^2 = 0.0002  R2^2 = 0.9998  Res^2 = 1.39e-29
 Conv-d = yes

 Amplitude    Transitions between orbitals
 -0.6250       1 (B1) A      3 (A1) B    ->    4 (A1) B     
  0.6250       3 (A1) B      1 (B1) A    ->    4 (A1) B     
 -0.6067       3 (A1) A      1 (B1) B    ->    4 (A1) B     
  0.6067       1 (B1) B      3 (A1) A    ->    4 (A1) B     
  0.4571       3 (A1) A      1 (B1) A    ->    4 (A1) A     
 -0.4571       1 (B1) A      3 (A1) A    ->    4 (A1) A     

              Summary of significant orbitals:

               Number  Type             Irrep      Energy
               5       Occ  Alpha       3 (A1)     -1.0430
               3       Occ  Alpha       1 (B1)     -1.1758
               4       Occ  Beta        3 (A1)     -0.9838
               3       Occ  Beta        1 (B1)     -1.1334
               6       Vir  Alpha       4 (A1)      0.0503
               6       Vir  Beta        4 (A1)      0.0801


 EOMIP transition 4/B1
 Total energy = -72.82871680 a.u.  Excitation energy = 50.8141 eV.
 R1^2 = 0.0006  R2^2 = 0.9994  Res^2 = 8.43e-30
 Conv-d = yes

 Amplitude    Transitions between orbitals
 -0.7104       3 (A1) A      3 (A1) B    ->    2 (B1) B     
  0.7104       3 (A1) B      3 (A1) A    ->    2 (B1) B     
 -0.4585       1 (B1) A      3 (A1) B    ->    4 (A1) B     
  0.4585       3 (A1) B      1 (B1) A    ->    4 (A1) B     
 -0.3810       3 (A1) A      1 (B1) A    ->    4 (A1) A     
  0.3810       1 (B1) A      3 (A1) A    ->    4 (A1) A     
  0.2529       3 (A1) A      1 (B1) B    ->    4 (A1) B     
 -0.2529       1 (B1) B      3 (A1) A    ->    4 (A1) B     
 -0.1989       1 (B1) A      1 (B1) B    ->    2 (B1) B     
  0.1989       1 (B1) B      1 (B1) A    ->    2 (B1) B     
 -0.1281       3 (A1) A      2 (A1) B    ->    2 (B1) B     
  0.1281       2 (A1) B      3 (A1) A    ->    2 (B1) B     
 -0.1232       2 (A1) A      3 (A1) B    ->    2 (B1) B     
  0.1232       3 (A1) B      2 (A1) A    ->    2 (B1) B     

              Summary of significant orbitals:

               Number  Type             Irrep      Energy
               2       Occ  Alpha       2 (A1)     -1.8941
               5       Occ  Alpha       3 (A1)     -1.0430
               3       Occ  Alpha       1 (B1)     -1.1758
               2       Occ  Beta        2 (A1)     -1.7207
               4       Occ  Beta        3 (A1)     -0.9838
               3       Occ  Beta        1 (B1)     -1.1334
               6       Vir  Alpha       4 (A1)      0.0503
               6       Vir  Beta        4 (A1)      0.0801
               7       Vir  Beta        2 (B1)      0.1962


 EOMIP transition 5/B1
 Total energy = -72.75131863 a.u.  Excitation energy = 52.9202 eV.
 R1^2 = 0.0004  R2^2 = 0.9996  Res^2 = 9.46e-30
 Conv-d = yes

 Amplitude    Transitions between orbitals
 -0.6994       3 (A1) A      1 (B1) B    ->    4 (A1) B     
  0.6994       1 (B1) B      3 (A1) A    ->    4 (A1) B     
  0.4371       1 (B1) A      3 (A1) B    ->    4 (A1) B     
 -0.4371       3 (A1) B      1 (B1) A    ->    4 (A1) B     
 -0.3775       3 (A1) A      1 (B1) A    ->    4 (A1) A     
  0.3775       1 (B1) A      3 (A1) A    ->    4 (A1) A     
 -0.3217       1 (B1) A      1 (B1) B    ->    2 (B1) B     
  0.3217       1 (B1) B      1 (B1) A    ->    2 (B1) B     
 -0.2441       3 (A1) A      3 (A1) B    ->    2 (B1) B     
  0.2441       3 (A1) B      3 (A1) A    ->    2 (B1) B     

              Summary of significant orbitals:

               Number  Type             Irrep      Energy
               5       Occ  Alpha       3 (A1)     -1.0430
               3       Occ  Alpha       1 (B1)     -1.1758
               4       Occ  Beta        3 (A1)     -0.9838
               3       Occ  Beta        1 (B1)     -1.1334
               6       Vir  Alpha       4 (A1)      0.0503
               6       Vir  Beta        4 (A1)      0.0801
               7       Vir  Beta        2 (B1)      0.1962


Running a double precision version
      EOMIP-CCSD/MP2 left amplitudes will be solved using Davidson.
        Amplitudes will be solved using MOM  algorithm.
     Hard-coded thresholds: 
     LinDepThresh=1.00e-15  NormThresh=1.00e-06  ReorthogonThresh=1.00e-02

      Roots     MaxVec    MaxIter   Precond   Conv      Shift    
      5         120       60        1         1.00e-05  0.00e+00  
 ------------------------------------------------------------------------------
      Iter ConvRoots NVecs ResNorm^2 Current eigenvalues (eV)
 ------------------------------------------------------------------------------
      0    3      5     4.33e-05   30.7311   32.8919   48.7392*  50.8141*  52.9202*  
      1    4      6     5.23e-06   30.7311   32.8919*  48.7392*  50.8141*  52.9202*  
      2    5      7     5.74e-07   30.7311*  32.8919*  48.7392*  50.8141*  52.9202*  

     Davidson procedure converged

 EOMIP-CCSD transition 1/B1
S^2 calculation will be performed in  double precision
 EOMIP-CCSD transition 2/B1
S^2 calculation will be performed in  double precision
 EOMIP-CCSD transition 3/B1
S^2 calculation will be performed in  double precision
 EOMIP-CCSD transition 4/B1
S^2 calculation will be performed in  double precision
 EOMIP-CCSD transition 5/B1
S^2 calculation will be performed in  double precision
 Excited state properties for  EOMIP-CCSD transition 1/B1
 Dipole moment (a.u.): 1.248691 (X 0.000000, Y 0.000000, Z -1.248691)
 R-squared (a.u.): 11.368942 (XX 4.030989, YY 3.026914, ZZ 4.311039)
 Gauge origin (a.u.): (0.000000, 0.000000, 0.000000)
 Angular momentum (a.u.) against gauge origin: 
 (X 0.000000i, Y 0.000000i, Z 0.000000i)
 Traces of the OPDMs: Tr(AA) 4.000000, Tr(BB) 4.000000
 <S^2> = 1.880576

 Excited state properties for  EOMIP-CCSD transition 2/B1
 Dipole moment (a.u.): 1.144264 (X 0.000000, Y 0.000000, Z -1.144264)
 R-squared (a.u.): 11.809409 (XX 4.316183, YY 3.065863, ZZ 4.427362)
 Gauge origin (a.u.): (0.000000, 0.000000, 0.000000)
 Angular momentum (a.u.) against gauge origin: 
 (X 0.000000i, Y 0.000000i, Z 0.000000i)
 Traces of the OPDMs: Tr(AA) 4.000000, Tr(BB) 4.000000
 <S^2> = 0.131392

 Excited state properties for  EOMIP-CCSD transition 3/B1
 Dipole moment (a.u.): 0.003296 (X 0.000000, Y 0.000000, Z -0.003296)
 R-squared (a.u.): 15.086313 (XX 6.901437, YY 3.348033, ZZ 4.836843)
 Gauge origin (a.u.): (0.000000, 0.000000, 0.000000)
 Angular momentum (a.u.) against gauge origin: 
 (X 0.000000i, Y 0.000000i, Z 0.000000i)
 Traces of the OPDMs: Tr(AA) 4.000000, Tr(BB) 4.000000
 <S^2> = 3.929572

 Excited state properties for  EOMIP-CCSD transition 4/B1
 Dipole moment (a.u.): 0.012912 (X 0.000000, Y 0.000000, Z 0.012912)
 R-squared (a.u.): 15.051820 (XX 7.323842, YY 3.279292, ZZ 4.448687)
 Gauge origin (a.u.): (0.000000, 0.000000, 0.000000)
 Angular momentum (a.u.) against gauge origin: 
 (X 0.000000i, Y 0.000000i, Z 0.000000i)
 Traces of the OPDMs: Tr(AA) 4.000000, Tr(BB) 4.000000
 <S^2> = 1.033199

 Excited state properties for  EOMIP-CCSD transition 5/B1
 Dipole moment (a.u.): 0.081412 (X 0.000000, Y 0.000000, Z -0.081412)
 R-squared (a.u.): 14.931799 (XX 6.784394, YY 3.321834, ZZ 4.825572)
 Gauge origin (a.u.): (0.000000, 0.000000, 0.000000)
 Angular momentum (a.u.) against gauge origin: 
 (X 0.000000i, Y 0.000000i, Z 0.000000i)
 Traces of the OPDMs: Tr(AA) 4.000000, Tr(BB) 4.000000
 <S^2> = 1.014941

        Solving for EOMIP-CCSD B2 transitions.

Warning! Not enough singles to form guess subspace. Doubles guess vectors will be generated.
In case of poor EOM convergence, reduce requested IP_STATES.

Running a double precision version
      EOMIP-CCSD/MP2 right amplitudes will be solved using Davidson.
        Amplitudes will be solved using standard  algorithm.
     Hard-coded thresholds: 
     LinDepThresh=1.00e-15  NormThresh=1.00e-06  ReorthogonThresh=1.00e-02

      Roots     MaxVec    MaxIter   Precond   Conv      Shift    
      5         120       60        1         1.00e-05  0.00e+00  
 ------------------------------------------------------------------------------
      Iter ConvRoots NVecs ResNorm^2 Current eigenvalues (eV)
 ------------------------------------------------------------------------------
      0    0      5     3.58e-02   28.8210   33.2212   40.8668   51.1384   54.7078   
      1    1      10    2.65e-03   27.1119   32.4360   40.2476*  50.1214   52.6948   
      2    5      12    9.06e-30   27.1111*  32.4344*  40.2473*  47.8150*  50.7157*  

     Davidson procedure converged

 EOMIP transition 1/B2
 Total energy = -73.69978683 a.u.  Excitation energy = 27.1111 eV.
 R1^2 = 0.9136  R2^2 = 0.0864  Res^2 = 1.74e-30
 Conv-d = yes

 Amplitude    Transitions between orbitals
  0.9558       1 (B2) A                  ->    infty        

              Summary of significant orbitals:

               Number  Type             Irrep      Energy
               4       Occ  Alpha       1 (B2)     -1.0976


 EOMIP transition 2/B2
 Total energy = -73.50415870 a.u.  Excitation energy = 32.4344 eV.
 R1^2 = 0.0238  R2^2 = 0.9762  Res^2 = 2.44e-29
 Conv-d = yes

 Amplitude    Transitions between orbitals
 -0.9694       3 (A1) A      3 (A1) B    ->    1 (B2) B     
  0.9694       3 (A1) B      3 (A1) A    ->    1 (B2) B     
 -0.1076       3 (A1) A      2 (A1) B    ->    1 (B2) B     
  0.1076       2 (A1) B      3 (A1) A    ->    1 (B2) B     
 -0.1068       1 (B1) A      1 (B1) B    ->    1 (B2) B     
  0.1068       1 (B1) B      1 (B1) A    ->    1 (B2) B     

              Summary of significant orbitals:

               Number  Type             Irrep      Energy
               5       Occ  Alpha       3 (A1)     -1.0430
               3       Occ  Alpha       1 (B1)     -1.1758
               2       Occ  Beta        2 (A1)     -1.7207
               4       Occ  Beta        3 (A1)     -0.9838
               3       Occ  Beta        1 (B1)     -1.1334
               5       Vir  Beta        1 (B2)     -0.2089


 EOMIP transition 3/B2
 Total energy = -73.21703857 a.u.  Excitation energy = 40.2473 eV.
 R1^2 = 0.0027  R2^2 = 0.9973  Res^2 = 1.44e-29
 Conv-d = yes

 Amplitude    Transitions between orbitals
  0.9861       1 (B1) A      1 (B1) B    ->    1 (B2) B     
 -0.9861       1 (B1) B      1 (B1) A    ->    1 (B2) B     
  0.1253       2 (A1) A      2 (A1) B    ->    1 (B2) B     
 -0.1253       2 (A1) B      2 (A1) A    ->    1 (B2) B     

              Summary of significant orbitals:

               Number  Type             Irrep      Energy
               2       Occ  Alpha       2 (A1)     -1.8941
               3       Occ  Alpha       1 (B1)     -1.1758
               2       Occ  Beta        2 (A1)     -1.7207
               3       Occ  Beta        1 (B1)     -1.1334
               5       Vir  Beta        1 (B2)     -0.2089


 EOMIP transition 4/B2
 Total energy = -72.93893086 a.u.  Excitation energy = 47.8150 eV.
 R1^2 = 0.0003  R2^2 = 0.9997  Res^2 = 2.07e-30
 Conv-d = yes

 Amplitude    Transitions between orbitals
 -0.6003       2 (A1) A      3 (A1) B    ->    1 (B2) B     
  0.6003       3 (A1) B      2 (A1) A    ->    1 (B2) B     
  0.5931       3 (A1) A      2 (A1) B    ->    1 (B2) B     
 -0.5931       2 (A1) B      3 (A1) A    ->    1 (B2) B     
  0.3946       1 (B2) A      3 (A1) B    ->    4 (A1) B     
 -0.3946       3 (A1) B      1 (B2) A    ->    4 (A1) B     
 -0.3175       3 (A1) A      1 (B2) A    ->    4 (A1) A     
  0.3175       1 (B2) A      3 (A1) A    ->    4 (A1) A     
  0.1149       1 (B1) A      1 (B2) A    ->    2 (B1) A     
 -0.1149       1 (B2) A      1 (B1) A    ->    2 (B1) A     

              Summary of significant orbitals:

               Number  Type             Irrep      Energy
               2       Occ  Alpha       2 (A1)     -1.8941
               5       Occ  Alpha       3 (A1)     -1.0430
               3       Occ  Alpha       1 (B1)     -1.1758
               4       Occ  Alpha       1 (B2)     -1.0976
               2       Occ  Beta        2 (A1)     -1.7207
               4       Occ  Beta        3 (A1)     -0.9838
               6       Vir  Alpha       4 (A1)      0.0503
               7       Vir  Alpha       2 (B1)      0.1752
               6       Vir  Beta        4 (A1)      0.0801
               5       Vir  Beta        1 (B2)     -0.2089


 EOMIP transition 5/B2
 Total energy = -72.83233191 a.u.  Excitation energy = 50.7157 eV.
 R1^2 = 0.0010  R2^2 = 0.9990  Res^2 = 2.67e-30
 Conv-d = yes

 Amplitude    Transitions between orbitals
  0.5259       1 (B2) A      3 (A1) B    ->    4 (A1) B     
 -0.5259       3 (A1) B      1 (B2) A    ->    4 (A1) B     
 -0.4080       3 (A1) A      2 (A1) B    ->    1 (B2) B     
  0.4080       2 (A1) B      3 (A1) A    ->    1 (B2) B     
 -0.3983       3 (A1) A      1 (B2) A    ->    4 (A1) A     
  0.3983       1 (B2) A      3 (A1) A    ->    4 (A1) A     
  0.3772       1 (B1) A      1 (B2) A    ->    2 (B1) A     
 -0.3772       1 (B2) A      1 (B1) A    ->    2 (B1) A     
 -0.3636       1 (B2) A      1 (B1) B    ->    2 (B1) B     
  0.3636       1 (B1) B      1 (B2) A    ->    2 (B1) B     
  0.3069       2 (A1) A      3 (A1) B    ->    1 (B2) B     
 -0.3069       3 (A1) B      2 (A1) A    ->    1 (B2) B     
  0.1268       1 (B2) A      2 (A1) B    ->    4 (A1) B     
 -0.1268       2 (A1) B      1 (B2) A    ->    4 (A1) B     
 -0.1061       2 (A1) A      1 (B2) A    ->    4 (A1) A     
  0.1061       1 (B2) A      2 (A1) A    ->    4 (A1) A     

              Summary of significant orbitals:

               Number  Type             Irrep      Energy
               2       Occ  Alpha       2 (A1)     -1.8941
               5       Occ  Alpha       3 (A1)     -1.0430
               3       Occ  Alpha       1 (B1)     -1.1758
               4       Occ  Alpha       1 (B2)     -1.0976
               2       Occ  Beta        2 (A1)     -1.7207
               4       Occ  Beta        3 (A1)     -0.9838
               3       Occ  Beta        1 (B1)     -1.1334
               6       Vir  Alpha       4 (A1)      0.0503
               7       Vir  Alpha       2 (B1)      0.1752
               6       Vir  Beta        4 (A1)      0.0801
               7       Vir  Beta        2 (B1)      0.1962
               5       Vir  Beta        1 (B2)     -0.2089


Running a double precision version
      EOMIP-CCSD/MP2 left amplitudes will be solved using Davidson.
        Amplitudes will be solved using MOM  algorithm.
     Hard-coded thresholds: 
     LinDepThresh=1.00e-15  NormThresh=1.00e-06  ReorthogonThresh=1.00e-02

      Roots     MaxVec    MaxIter   Precond   Conv      Shift    
      5         120       60        1         1.00e-05  0.00e+00  
 ------------------------------------------------------------------------------
      Iter ConvRoots NVecs ResNorm^2 Current eigenvalues (eV)
 ------------------------------------------------------------------------------
      0    3      5     2.32e-04   27.1111   32.4344   40.2473*  47.8150*  50.7157*  
      1    4      6     8.29e-06   27.1111   32.4344*  40.2473*  47.8150*  50.7157*  
      2    5      7     1.80e-06   27.1111*  32.4344*  40.2473*  47.8150*  50.7157*  

     Davidson procedure converged

 EOMIP-CCSD transition 1/B2
S^2 calculation will be performed in  double precision
 EOMIP-CCSD transition 2/B2
S^2 calculation will be performed in  double precision
 EOMIP-CCSD transition 3/B2
S^2 calculation will be performed in  double precision
 EOMIP-CCSD transition 4/B2
S^2 calculation will be performed in  double precision
 EOMIP-CCSD transition 5/B2
S^2 calculation will be performed in  double precision
 Excited state properties for  EOMIP-CCSD transition 1/B2
 Dipole moment (a.u.): 1.092213 (X 0.000000, Y 0.000000, Z -1.092213)
 R-squared (a.u.): 11.715213 (XX 4.887894, YY 2.508613, ZZ 4.318706)
 Gauge origin (a.u.): (0.000000, 0.000000, 0.000000)
 Angular momentum (a.u.) against gauge origin: 
 (X 0.000000i, Y 0.000000i, Z 0.000000i)
 Traces of the OPDMs: Tr(AA) 4.000000, Tr(BB) 4.000000
 <S^2> = 0.000549
 Density matrix was written to a file for further analysis.

 Excited state properties for  EOMIP-CCSD transition 2/B2
 Dipole moment (a.u.): 0.654880 (X 0.000000, Y 0.000000, Z -0.654880)
 R-squared (a.u.): 12.155350 (XX 5.290681, YY 3.650301, ZZ 3.214368)
 Gauge origin (a.u.): (0.000000, 0.000000, 0.000000)
 Angular momentum (a.u.) against gauge origin: 
 (X 0.000000i, Y 0.000000i, Z 0.000000i)
 Traces of the OPDMs: Tr(AA) 4.000000, Tr(BB) 4.000000
 <S^2> = 0.005280

 Excited state properties for  EOMIP-CCSD transition 3/B2
 Dipole moment (a.u.): 1.410158 (X 0.000000, Y 0.000000, Z -1.410158)
 R-squared (a.u.): 10.986438 (XX 3.168348, YY 3.576020, ZZ 4.242071)
 Gauge origin (a.u.): (0.000000, 0.000000, 0.000000)
 Angular momentum (a.u.) against gauge origin: 
 (X 0.000000i, Y 0.000000i, Z 0.000000i)
 Traces of the OPDMs: Tr(AA) 4.000000, Tr(BB) 4.000000
 <S^2> = 0.003444

 Excited state properties for  EOMIP-CCSD transition 4/B2
 Dipole moment (a.u.): 0.575321 (X 0.000000, Y 0.000000, Z -0.575321)
 R-squared (a.u.): 13.517898 (XX 6.071121, YY 3.311032, ZZ 4.135745)
 Gauge origin (a.u.): (0.000000, 0.000000, 0.000000)
 Angular momentum (a.u.) against gauge origin: 
 (X 0.000000i, Y 0.000000i, Z 0.000000i)
 Traces of the OPDMs: Tr(AA) 4.000000, Tr(BB) 4.000000
 <S^2> = 1.994323

 Excited state properties for  EOMIP-CCSD transition 5/B2
 Dipole moment (a.u.): 0.244074 (X 0.000000, Y 0.000000, Z -0.244074)
 R-squared (a.u.): 14.906543 (XX 7.098075, YY 2.965719, ZZ 4.842749)
 Gauge origin (a.u.): (0.000000, 0.000000, 0.000000)
 Angular momentum (a.u.) against gauge origin: 
 (X 0.000000i, Y 0.000000i, Z 0.000000i)
 Traces of the OPDMs: Tr(AA) 4.000000, Tr(BB) 4.000000
 <S^2> = 1.973502

 EOMIP-MP2 calculation:   CPU 6.04 s  wall 5.79 s


 Start computing the transition properties

 ------------------------------------------------------------------------------
 The new SOC module will be executed 
 Authors: Pavel Pokhilko and Evgeny Epifanovsky 
 SOC 1e and mf integrals are evaluating by libqints...
 ------------------------------------------------------------------------------
 State A: eomip_mp2/a: 1/B2
 State B: eomip_mp2/a: 1/A1
 Energy GAP = 0.045808 a.u. = 1.246490 eV
 Transition dipole moment (a.u.):
   A->B: 0.047641 (X 0.000000, Y -0.047641, Z 0.000000)
   B->A: 0.046389 (X 0.000000, Y -0.046389, Z 0.000000)
 Oscillator strength (a.u.): 0.000067
 Transition angular momentum against gauge origin (a.u.):
   A->B:  (X -0.466681i, Y 0.000000i, Z 0.000000i)
   B->A:  (X 0.465054i, Y 0.000000i, Z 0.000000i)
 Norm of one-particle transition density matrix:
   A->B: 0.988194;   B->A: 0.989069
   ||gamma^AB||*||gamma^BA||: 0.977392

 ______________________________________________________________
 A(Ket)->B(Bra) transition SO matrices
Full 2e SOC is not implemented withing libqints. 
I will do mean-field SOC with libqints, which is usually as good as full 2e SOC
 Analysing Sz ans S^2 of the pair of states...
 Ket state:  Computed S^2 = 0.000549 will be treated as 0.000000 Sz = 0.000000
 Bra state:  Computed S^2 = 1.824678 will be treated as 2.000000 Sz = 0.000000
 Clebsh-Gordan coefficient: <0.000,0.000;1.000,0.000|1.000,0.000> = 1.000
 _________________________________________________
 One-electron SO (cm-1)
 Reduced matrix elements:
 <S|| Hso(L-) ||S'> = (0.000000,58.309023)
 <S|| Hso(L0) ||S'> = (0.000000,-0.000000)
 <S|| Hso(L+) ||S'> = (0.000000,-58.309023)
 SOCC = 82.461411
 Actual matrix elements:
       |Sz=0.00>
 <Sz=-1.00|(0.000000,-58.309023)
 <Sz=0.00|(0.000000,-0.000000)
 <Sz=1.00|(0.000000,58.309023)
 _________________________________________________
 Mean-field SO (cm-1)
 Reduced matrix elements:
 <S|| Hso(L-) ||S'> = (0.000000,35.805612)
 <S|| Hso(L0) ||S'> = (0.000000,-0.000000)
 <S|| Hso(L+) ||S'> = (0.000000,-34.838081)
 SOCC = 49.952634
 Actual matrix elements:
       |Sz=0.00>
 <Sz=-1.00|(0.000000,-35.321846)
 <Sz=0.00|(0.000000,-0.000000)
 <Sz=1.00|(0.000000,35.321846)
 Singlet part of <S|| Hso(L0) ||S'> = (-0.000000,-0.000000) (excluded from all matrix elements)
 L-/L+ Averaged reduced matrix elements:
 <S|| Hso(L-) ||S'> = (0.000000,35.321846)
 <S|| Hso(L+) ||S'> = (0.000000,-35.321846)
 ______________________________________________________________
 B(Ket)->A(Bra) transition SO matrices
Full 2e SOC is not implemented withing libqints. 
I will do mean-field SOC with libqints, which is usually as good as full 2e SOC
 Analysing Sz ans S^2 of the pair of states...
 Ket state:  Computed S^2 = 1.824678 will be treated as 2.000000 Sz = 0.000000
 Bra state:  Computed S^2 = 0.000549 will be treated as 0.000000 Sz = 0.000000
 Clebsh-Gordan coefficient: <1.000,0.000;1.000,0.000|0.000,0.000> = 0.577
 _________________________________________________
 One-electron SO (cm-1)
 Reduced matrix elements:
 <S|| Hso(L-) ||S'> = (-0.000000,-100.524685)
 <S|| Hso(L0) ||S'> = (0.000000,0.000000)
 <S|| Hso(L+) ||S'> = (-0.000000,100.524685)
 SOCC = 82.078061
 Actual matrix elements:
       |Sz=-1.00>           |Sz=0.00>           |Sz=1.00>
 <Sz=0.00|(0.000000,58.037954)(0.000000,0.000000)(0.000000,-58.037954)
 _________________________________________________
 Mean-field SO (cm-1)
 Reduced matrix elements:
 <S|| Hso(L-) ||S'> = (-0.000000,-60.026081)
 <S|| Hso(L0) ||S'> = (0.000000,0.000000)
 <S|| Hso(L+) ||S'> = (-0.000000,61.689746)
 SOCC = 49.690278
 Actual matrix elements:
       |Sz=-1.00>           |Sz=0.00>           |Sz=1.00>
 <Sz=0.00|(0.000000,35.136333)(0.000000,0.000000)(0.000000,-35.136333)
 Singlet part of <S|| Hso(L0) ||S'> = (-0.000000,0.000000) (excluded from all matrix elements)
 L-/L+ Averaged reduced matrix elements:
 <S|| Hso(L-) ||S'> = (-0.000000,-60.857913)
 <S|| Hso(L+) ||S'> = (-0.000000,60.857913)
 ______________________________________________________________
   Arithmetically averaged transition SO matrices
   (The phases shown, Ket and Bra assingment are from A(Ket)->B(Bra))
 _________________________________________________
 One-electron SO (cm-1)
 SOCC = 82.269736
 Actual matrix elements:
       |Sz=0.00>
 <Sz=-1.00|(0.000000,-58.173488)
 <Sz=0.00|(0.000000,-0.000000)
 <Sz=1.00|(0.000000,58.173488)
 _________________________________________________
 Mean-field SO (cm-1)
 SOCC = 49.821456
 Actual matrix elements:
       |Sz=0.00>
 <Sz=-1.00|(0.000000,-35.229090)
 <Sz=0.00|(0.000000,-0.000000)
 <Sz=1.00|(0.000000,35.229090)
 ______________________________________________________________

 ------------------------------------------------------------------------------
 State A: eomip_mp2/a: 1/B2
 State B: eomip_mp2/a: 2/A1
 Energy GAP = 0.081385 a.u. = 2.214603 eV
 Transition dipole moment (a.u.):
   A->B: 0.099473 (X 0.000000, Y 0.099473, Z 0.000000)
   B->A: 0.100084 (X 0.000000, Y 0.100084, Z 0.000000)
 Oscillator strength (a.u.): 0.000540
 Transition angular momentum against gauge origin (a.u.):
   A->B:  (X 1.519497i, Y 0.000000i, Z 0.000000i)
   B->A:  (X -1.517998i, Y 0.000000i, Z 0.000000i)
 Norm of one-particle transition density matrix:
   A->B: 0.975507;   B->A: 0.978667
   ||gamma^AB||*||gamma^BA||: 0.954697

 ______________________________________________________________
 A(Ket)->B(Bra) transition SO matrices
Full 2e SOC is not implemented withing libqints. 
I will do mean-field SOC with libqints, which is usually as good as full 2e SOC
 Analysing Sz ans S^2 of the pair of states...
 Ket state:  Computed S^2 = 0.000549 will be treated as 0.000000 Sz = 0.000000
WARNING! The deviation of S^2 from the correct value is large, indicating a significant spin contamination. The results may be unreliable
 Bra state:  Computed S^2 = 0.195762 will be treated as 0.000000 Sz = 0.000000
 Clebsh-Gordan coefficient: <0.000,0.000;1.000,0.000|0.000,0.000> = 0.000
WARNING! Clebsh-Gordon coefficient is too small to find a rotationally invariant part of triplet density.
Please use another EOM approach with non-zero Clebsh-Gordon coefficients
I am going to skip this transition
 ______________________________________________________________
 B(Ket)->A(Bra) transition SO matrices
Full 2e SOC is not implemented withing libqints. 
I will do mean-field SOC with libqints, which is usually as good as full 2e SOC
 Analysing Sz ans S^2 of the pair of states...
WARNING! The deviation of S^2 from the correct value is large, indicating a significant spin contamination. The results may be unreliable
 Ket state:  Computed S^2 = 0.196 will be treated as 0.000 Sz = 0.000
 Bra state:  Computed S^2 = 0.001 will be treated as 0.000 Sz = 0.000
 Clebsh-Gordan coefficient: <0.000,0.000;1.000,0.000|0.000,0.000> = 0.000
WARNING! Clebsh-Gordon coefficient is too small to find a rotationally invariant part of triplet density.
Please use another EOM approach with non-zero Clebsh-Gordon coefficients
I am going to skip this transition
 ______________________________________________________________
   Arithmetically averaged transition SO matrices
   (The phases shown, Ket and Bra assingment are from A(Ket)->B(Bra))
 ______________________________________________________________

 ------------------------------------------------------------------------------
 State A: eomip_mp2/a: 1/B2
 State B: eomip_mp2/a: 3/A1
 Energy GAP = 0.697 a.u. = 18.967 eV
 Transition dipole moment (a.u.):
   A->B: 0.080291 (X 0.000000, Y 0.080291, Z 0.000000)
   B->A: 0.086408 (X 0.000000, Y 0.086408, Z 0.000000)
 Oscillator strength (a.u.): 0.003224
 Transition angular momentum against gauge origin (a.u.):
   A->B:  (X -0.028784i, Y 0.000000i, Z 0.000000i)
   B->A:  (X 0.031528i, Y 0.000000i, Z 0.000000i)
 Norm of one-particle transition density matrix:
   A->B: 0.945693;   B->A: 0.948082
   ||gamma^AB||*||gamma^BA||: 0.896595

 ______________________________________________________________
 A(Ket)->B(Bra) transition SO matrices
Full 2e SOC is not implemented withing libqints. 
I will do mean-field SOC with libqints, which is usually as good as full 2e SOC
 Analysing Sz ans S^2 of the pair of states...
 Ket state:  Computed S^2 = 0.000549 will be treated as 0.000000 Sz = 0.000000
 Bra state:  Computed S^2 = 1.932726 will be treated as 2.000000 Sz = 0.000000
 Clebsh-Gordan coefficient: <0.000,0.000;1.000,0.000|1.000,0.000> = 1.000
 _________________________________________________
 One-electron SO (cm-1)
 Reduced matrix elements:
 <S|| Hso(L-) ||S'> = (0.000000,18.855549)
 <S|| Hso(L0) ||S'> = (0.000000,0.000000)
 <S|| Hso(L+) ||S'> = (0.000000,-18.855549)
 SOCC = 26.665773
 Actual matrix elements:
       |Sz=0.00>
 <Sz=-1.00|(0.000000,-18.855549)
 <Sz=0.00|(0.000000,0.000000)
 <Sz=1.00|(0.000000,18.855549)
 _________________________________________________
 Mean-field SO (cm-1)
 Reduced matrix elements:
 <S|| Hso(L-) ||S'> = (0.000000,11.336580)
 <S|| Hso(L0) ||S'> = (0.000000,0.000000)
 <S|| Hso(L+) ||S'> = (0.000000,-11.148008)
 SOCC = 15.899005
 Actual matrix elements:
       |Sz=0.00>
 <Sz=-1.00|(0.000000,-11.242294)
 <Sz=0.00|(0.000000,0.000000)
 <Sz=1.00|(0.000000,11.242294)
 Singlet part of <S|| Hso(L0) ||S'> = (-0.000000,-0.000000) (excluded from all matrix elements)
 L-/L+ Averaged reduced matrix elements:
 <S|| Hso(L-) ||S'> = (0.000000,11.242294)
 <S|| Hso(L+) ||S'> = (0.000000,-11.242294)
 ______________________________________________________________
 B(Ket)->A(Bra) transition SO matrices
Full 2e SOC is not implemented withing libqints. 
I will do mean-field SOC with libqints, which is usually as good as full 2e SOC
 Analysing Sz ans S^2 of the pair of states...
 Ket state:  Computed S^2 = 1.932726 will be treated as 2.000000 Sz = 0.000000
 Bra state:  Computed S^2 = 0.000549 will be treated as 0.000000 Sz = 0.000000
 Clebsh-Gordan coefficient: <1.000,0.000;1.000,0.000|0.000,0.000> = 0.577
 _________________________________________________
 One-electron SO (cm-1)
 Reduced matrix elements:
 <S|| Hso(L-) ||S'> = (-0.000000,-32.660814)
 <S|| Hso(L0) ||S'> = (0.000000,-0.000000)
 <S|| Hso(L+) ||S'> = (-0.000000,32.660814)
 SOCC = 26.667443
 Actual matrix elements:
       |Sz=-1.00>           |Sz=0.00>           |Sz=1.00>
 <Sz=0.00|(0.000000,18.856730)(0.000000,-0.000000)(0.000000,-18.856730)
 _________________________________________________
 Mean-field SO (cm-1)
 Reduced matrix elements:
 <S|| Hso(L-) ||S'> = (-0.000000,-19.306176)
 <S|| Hso(L0) ||S'> = (0.000000,-0.000000)
 <S|| Hso(L+) ||S'> = (-0.000000,19.627198)
 SOCC = 15.894483
 Actual matrix elements:
       |Sz=-1.00>           |Sz=0.00>           |Sz=1.00>
 <Sz=0.00|(0.000000,11.239097)(0.000000,-0.000000)(0.000000,-11.239097)
 Singlet part of <S|| Hso(L0) ||S'> = (-0.000000,0.000000) (excluded from all matrix elements)
 L-/L+ Averaged reduced matrix elements:
 <S|| Hso(L-) ||S'> = (-0.000000,-19.466687)
 <S|| Hso(L+) ||S'> = (-0.000000,19.466687)
 ______________________________________________________________
   Arithmetically averaged transition SO matrices
   (The phases shown, Ket and Bra assingment are from A(Ket)->B(Bra))
 _________________________________________________
 One-electron SO (cm-1)
 SOCC = 26.666608
 Actual matrix elements:
       |Sz=0.00>
 <Sz=-1.00|(0.000000,-18.856139)
 <Sz=0.00|(0.000000,0.000000)
 <Sz=1.00|(0.000000,18.856139)
 _________________________________________________
 Mean-field SO (cm-1)
 SOCC = 15.896744
 Actual matrix elements:
       |Sz=0.00>
 <Sz=-1.00|(0.000000,-11.240696)
 <Sz=0.00|(0.000000,0.000000)
 <Sz=1.00|(0.000000,11.240696)
 ______________________________________________________________

 ------------------------------------------------------------------------------
 State A: eomip_mp2/a: 1/B2
 State B: eomip_mp2/a: 4/A1
 Energy GAP = 0.811060 a.u. = 22.070065 eV
 Transition dipole moment (a.u.):
   A->B: 0.004432 (X 0.000000, Y 0.004432, Z 0.000000)
   B->A: 0.003941 (X 0.000000, Y 0.003941, Z 0.000000)
 Oscillator strength (a.u.): 0.000009
 Transition angular momentum against gauge origin (a.u.):
   A->B:  (X 0.027787i, Y 0.000000i, Z 0.000000i)
   B->A:  (X -0.023048i, Y 0.000000i, Z 0.000000i)
 Norm of one-particle transition density matrix:
   A->B: 0.076592;   B->A: 0.073769
   ||gamma^AB||*||gamma^BA||: 0.005650

 ______________________________________________________________
 A(Ket)->B(Bra) transition SO matrices
Full 2e SOC is not implemented withing libqints. 
I will do mean-field SOC with libqints, which is usually as good as full 2e SOC
 Analysing Sz ans S^2 of the pair of states...
 Ket state:  Computed S^2 = 0.000549 will be treated as 0.000000 Sz = 0.000000
WARNING! The deviation of S^2 from the correct value is large, indicating a significant spin contamination. The results may be unreliable
 Bra state:  Computed S^2 = 3.743063 will be treated as 2.000000 Sz = 0.000000
 Clebsh-Gordan coefficient: <0.000,0.000;1.000,0.000|1.000,0.000> = 1.000
 _________________________________________________
 One-electron SO (cm-1)
 Reduced matrix elements:
 <S|| Hso(L-) ||S'> = (0.000000,2.473731)
 <S|| Hso(L0) ||S'> = (0.000000,-0.000000)
 <S|| Hso(L+) ||S'> = (0.000000,-2.473731)
 SOCC = 3.498384
 Actual matrix elements:
       |Sz=0.00>
 <Sz=-1.00|(0.000000,-2.473731)
 <Sz=0.00|(0.000000,-0.000000)
 <Sz=1.00|(0.000000,2.473731)
 _________________________________________________
 Mean-field SO (cm-1)
 Reduced matrix elements:
 <S|| Hso(L-) ||S'> = (0.000000,1.546417)
 <S|| Hso(L0) ||S'> = (0.000000,-0.000000)
 <S|| Hso(L+) ||S'> = (0.000000,-1.526954)
 SOCC = 2.173202
 Actual matrix elements:
       |Sz=0.00>
 <Sz=-1.00|(0.000000,-1.536686)
 <Sz=0.00|(0.000000,-0.000000)
 <Sz=1.00|(0.000000,1.536686)
 Singlet part of <S|| Hso(L0) ||S'> = (-0.000000,-0.000000) (excluded from all matrix elements)
 L-/L+ Averaged reduced matrix elements:
 <S|| Hso(L-) ||S'> = (0.000000,1.536686)
 <S|| Hso(L+) ||S'> = (0.000000,-1.536686)
 ______________________________________________________________
 B(Ket)->A(Bra) transition SO matrices
Full 2e SOC is not implemented withing libqints. 
I will do mean-field SOC with libqints, which is usually as good as full 2e SOC
 Analysing Sz ans S^2 of the pair of states...
WARNING! The deviation of S^2 from the correct value is large, indicating a significant spin contamination. The results may be unreliable
 Ket state:  Computed S^2 = 3.743063 will be treated as 2.000000 Sz = 0.000000
 Bra state:  Computed S^2 = 0.000549 will be treated as 0.000000 Sz = 0.000000
 Clebsh-Gordan coefficient: <1.000,0.000;1.000,0.000|0.000,0.000> = 0.577
 _________________________________________________
 One-electron SO (cm-1)
 Reduced matrix elements:
 <S|| Hso(L-) ||S'> = (-0.000000,-4.798289)
 <S|| Hso(L0) ||S'> = (0.000000,0.000000)
 <S|| Hso(L+) ||S'> = (-0.000000,4.798289)
 SOCC = 3.917786
 Actual matrix elements:
       |Sz=-1.00>           |Sz=0.00>           |Sz=1.00>
 <Sz=0.00|(0.000000,2.770293)(0.000000,0.000000)(0.000000,-2.770293)
 _________________________________________________
 Mean-field SO (cm-1)
 Reduced matrix elements:
 <S|| Hso(L-) ||S'> = (-0.000000,-2.957023)
 <S|| Hso(L0) ||S'> = (0.000000,0.000000)
 <S|| Hso(L+) ||S'> = (-0.000000,2.997288)
 SOCC = 2.430837
 Actual matrix elements:
       |Sz=-1.00>           |Sz=0.00>           |Sz=1.00>
 <Sz=0.00|(0.000000,1.718862)(0.000000,0.000000)(0.000000,-1.718862)
 Singlet part of <S|| Hso(L0) ||S'> = (-0.000000,0.000000) (excluded from all matrix elements)
 L-/L+ Averaged reduced matrix elements:
 <S|| Hso(L-) ||S'> = (-0.000000,-2.977156)
 <S|| Hso(L+) ||S'> = (-0.000000,2.977156)
 ______________________________________________________________
   Arithmetically averaged transition SO matrices
   (The phases shown, Ket and Bra assingment are from A(Ket)->B(Bra))
 _________________________________________________
 One-electron SO (cm-1)
 SOCC = 3.708085
 Actual matrix elements:
       |Sz=0.00>
 <Sz=-1.00|(0.000000,-2.622012)
 <Sz=0.00|(0.000000,-0.000000)
 <Sz=1.00|(0.000000,2.622012)
 _________________________________________________
 Mean-field SO (cm-1)
 SOCC = 2.302020
 Actual matrix elements:
       |Sz=0.00>
 <Sz=-1.00|(0.000000,-1.627774)
 <Sz=0.00|(0.000000,-0.000000)
 <Sz=1.00|(0.000000,1.627774)
 ______________________________________________________________

 ------------------------------------------------------------------------------
 State A: eomip_mp2/a: 1/B2
 State B: eomip_mp2/a: 5/A1
 Energy GAP = 0.855501 a.u. = 23.279389 eV
 Transition dipole moment (a.u.):
   A->B: 0.028268 (X 0.000000, Y 0.028268, Z 0.000000)
   B->A: 0.027317 (X 0.000000, Y 0.027317, Z 0.000000)
 Oscillator strength (a.u.): 0.000440
 Transition angular momentum against gauge origin (a.u.):
   A->B:  (X 0.025157i, Y 0.000000i, Z 0.000000i)
   B->A:  (X -0.014134i, Y 0.000000i, Z 0.000000i)
 Norm of one-particle transition density matrix:
   A->B: 0.142116;   B->A: 0.135754
   ||gamma^AB||*||gamma^BA||: 0.019293

 ______________________________________________________________
 A(Ket)->B(Bra) transition SO matrices
Full 2e SOC is not implemented withing libqints. 
I will do mean-field SOC with libqints, which is usually as good as full 2e SOC
 Analysing Sz ans S^2 of the pair of states...
 Ket state:  Computed S^2 = 0.000549 will be treated as 0.000000 Sz = 0.000000
WARNING! The deviation of S^2 from the correct value is large, indicating a significant spin contamination. The results may be unreliable
 Bra state:  Computed S^2 = 1.243541 will be treated as 2.000000 Sz = 0.000000
 Clebsh-Gordan coefficient: <0.000,0.000;1.000,0.000|1.000,0.000> = 1.000
 _________________________________________________
 One-electron SO (cm-1)
 Reduced matrix elements:
 <S|| Hso(L-) ||S'> = (0.000000,3.111224)
 <S|| Hso(L0) ||S'> = (0.000000,-0.000000)
 <S|| Hso(L+) ||S'> = (0.000000,-3.111224)
 SOCC = 4.399936
 Actual matrix elements:
       |Sz=0.00>
 <Sz=-1.00|(0.000000,-3.111224)
 <Sz=0.00|(0.000000,-0.000000)
 <Sz=1.00|(0.000000,3.111224)
 _________________________________________________
 Mean-field SO (cm-1)
 Reduced matrix elements:
 <S|| Hso(L-) ||S'> = (0.000000,2.005949)
 <S|| Hso(L0) ||S'> = (0.000000,-0.000000)
 <S|| Hso(L+) ||S'> = (0.000000,-2.024338)
 SOCC = 2.849843
 Actual matrix elements:
       |Sz=0.00>
 <Sz=-1.00|(0.000000,-2.015144)
 <Sz=0.00|(0.000000,-0.000000)
 <Sz=1.00|(0.000000,2.015144)
 Singlet part of <S|| Hso(L0) ||S'> = (-0.000000,-0.000000) (excluded from all matrix elements)
 L-/L+ Averaged reduced matrix elements:
 <S|| Hso(L-) ||S'> = (0.000000,2.015144)
 <S|| Hso(L+) ||S'> = (0.000000,-2.015144)
 ______________________________________________________________
 B(Ket)->A(Bra) transition SO matrices
Full 2e SOC is not implemented withing libqints. 
I will do mean-field SOC with libqints, which is usually as good as full 2e SOC
 Analysing Sz ans S^2 of the pair of states...
WARNING! The deviation of S^2 from the correct value is large, indicating a significant spin contamination. The results may be unreliable
 Ket state:  Computed S^2 = 1.243541 will be treated as 2.000000 Sz = 0.000000
 Bra state:  Computed S^2 = 0.000549 will be treated as 0.000000 Sz = 0.000000
 Clebsh-Gordan coefficient: <1.000,0.000;1.000,0.000|0.000,0.000> = 0.577
 _________________________________________________
 One-electron SO (cm-1)
 Reduced matrix elements:
 <S|| Hso(L-) ||S'> = (-0.000000,-7.224619)
 <S|| Hso(L0) ||S'> = (0.000000,0.000000)
 <S|| Hso(L+) ||S'> = (-0.000000,7.224619)
 SOCC = 5.898876
 Actual matrix elements:
       |Sz=-1.00>           |Sz=0.00>           |Sz=1.00>
 <Sz=0.00|(0.000000,4.171135)(0.000000,0.000000)(0.000000,-4.171135)
 _________________________________________________
 Mean-field SO (cm-1)
 Reduced matrix elements:
 <S|| Hso(L-) ||S'> = (-0.000000,-4.632197)
 <S|| Hso(L0) ||S'> = (0.000000,0.000000)
 <S|| Hso(L+) ||S'> = (-0.000000,4.620308)
 SOCC = 3.777319
 Actual matrix elements:
       |Sz=-1.00>           |Sz=0.00>           |Sz=1.00>
 <Sz=0.00|(0.000000,2.670968)(0.000000,0.000000)(0.000000,-2.670968)
 Singlet part of <S|| Hso(L0) ||S'> = (-0.000000,0.000000) (excluded from all matrix elements)
 L-/L+ Averaged reduced matrix elements:
 <S|| Hso(L-) ||S'> = (-0.000000,-4.626252)
 <S|| Hso(L+) ||S'> = (-0.000000,4.626252)
 ______________________________________________________________
   Arithmetically averaged transition SO matrices
   (The phases shown, Ket and Bra assingment are from A(Ket)->B(Bra))
 _________________________________________________
 One-electron SO (cm-1)
 SOCC = 5.149406
 Actual matrix elements:
       |Sz=0.00>
 <Sz=-1.00|(0.000000,-3.641180)
 <Sz=0.00|(0.000000,-0.000000)
 <Sz=1.00|(0.000000,3.641180)
 _________________________________________________
 Mean-field SO (cm-1)
 SOCC = 3.313581
 Actual matrix elements:
       |Sz=0.00>
 <Sz=-1.00|(0.000000,-2.343056)
 <Sz=0.00|(0.000000,-0.000000)
 <Sz=1.00|(0.000000,2.343056)
 ______________________________________________________________

 ------------------------------------------------------------------------------
 State A: eomip_mp2/a: 1/B2
 State B: eomip_mp2/a: 1/A2
 Energy GAP = 0.208475 a.u. = 5.672908 eV
 Transition dipole moment (a.u.):
   A->B: 0.001701 (X -0.001701, Y 0.000000, Z 0.000000)
   B->A: 0.001501 (X -0.001501, Y 0.000000, Z 0.000000)
 Oscillator strength (a.u.): 0.000000
 Transition angular momentum against gauge origin (a.u.):
   A->B:  (X 0.000000i, Y 0.001307i, Z 0.000000i)
   B->A:  (X 0.000000i, Y -0.001287i, Z 0.000000i)
 Norm of one-particle transition density matrix:
   A->B: 0.187747;   B->A: 0.183940
   ||gamma^AB||*||gamma^BA||: 0.034534

 ______________________________________________________________
 A(Ket)->B(Bra) transition SO matrices
Full 2e SOC is not implemented withing libqints. 
I will do mean-field SOC with libqints, which is usually as good as full 2e SOC
 Analysing Sz ans S^2 of the pair of states...
 Ket state:  Computed S^2 = 0.000549 will be treated as 0.000000 Sz = 0.000000
 Bra state:  Computed S^2 = 1.999065 will be treated as 2.000000 Sz = 0.000000
 Clebsh-Gordan coefficient: <0.000,0.000;1.000,0.000|1.000,0.000> = 1.000
 _________________________________________________
 One-electron SO (cm-1)
 Reduced matrix elements:
 <S|| Hso(L-) ||S'> = (10.441401,-0.000000)
 <S|| Hso(L0) ||S'> = (0.000000,-0.000000)
 <S|| Hso(L+) ||S'> = (10.441401,0.000000)
 SOCC = 14.766371
 Actual matrix elements:
       |Sz=0.00>
 <Sz=-1.00|(10.441401,0.000000)
 <Sz=0.00|(0.000000,-0.000000)
 <Sz=1.00|(10.441401,-0.000000)
 _________________________________________________
 Mean-field SO (cm-1)
 Reduced matrix elements:
[...]
 Reduced matrix elements:
 <S|| Hso(L-) ||S'> = (0.000000,-0.000000)
 <S|| Hso(L0) ||S'> = (0.000000,3.346777)
 <S|| Hso(L+) ||S'> = (0.000000,0.000000)
 SOCC = 3.346777
 Actual matrix elements:
       |Sz=0.00>
 <Sz=-1.00|(0.000000,0.000000)
 <Sz=0.00|(0.000000,3.346777)
 <Sz=1.00|(0.000000,-0.000000)
 _________________________________________________
 Mean-field SO (cm-1)
 Reduced matrix elements:
 <S|| Hso(L-) ||S'> = (0.000000,-0.000000)
 <S|| Hso(L0) ||S'> = (0.000000,2.024372)
 <S|| Hso(L+) ||S'> = (0.000000,0.000000)
 SOCC = 2.024372
 Actual matrix elements:
       |Sz=0.00>
 <Sz=-1.00|(0.000000,0.000000)
 <Sz=0.00|(0.000000,2.024372)
 <Sz=1.00|(0.000000,-0.000000)
 Singlet part of <S|| Hso(L0) ||S'> = (-0.000000,-0.024446) (excluded from all matrix elements)
 L-/L+ Averaged reduced matrix elements:
 <S|| Hso(L-) ||S'> = (0.000000,-0.000000)
 <S|| Hso(L+) ||S'> = (0.000000,0.000000)
 ______________________________________________________________
 B(Ket)->A(Bra) transition SO matrices
Full 2e SOC is not implemented withing libqints. 
I will do mean-field SOC with libqints, which is usually as good as full 2e SOC
 Analysing Sz ans S^2 of the pair of states...
WARNING! The deviation of S^2 from the correct value is large, indicating a significant spin contamination. The results may be unreliable
 Ket state:  Computed S^2 = 1.014941 will be treated as 2.000000 Sz = 0.000000
 Bra state:  Computed S^2 = 0.000549 will be treated as 0.000000 Sz = 0.000000
 Clebsh-Gordan coefficient: <1.000,0.000;1.000,0.000|0.000,0.000> = 0.577
 _________________________________________________
 One-electron SO (cm-1)
 Reduced matrix elements:
 <S|| Hso(L-) ||S'> = (-0.000000,-0.000000)
 <S|| Hso(L0) ||S'> = (0.000000,-1.936787)
 <S|| Hso(L+) ||S'> = (-0.000000,0.000000)
 SOCC = 1.118204
 Actual matrix elements:
       |Sz=-1.00>           |Sz=0.00>           |Sz=1.00>
 <Sz=0.00|(0.000000,0.000000)(0.000000,-1.118204)(0.000000,-0.000000)
 _________________________________________________
 Mean-field SO (cm-1)
 Reduced matrix elements:
 <S|| Hso(L-) ||S'> = (-0.000000,-0.000000)
 <S|| Hso(L0) ||S'> = (0.000000,-1.119688)
 <S|| Hso(L+) ||S'> = (-0.000000,0.000000)
 SOCC = 0.646452
 Actual matrix elements:
       |Sz=-1.00>           |Sz=0.00>           |Sz=1.00>
 <Sz=0.00|(0.000000,0.000000)(0.000000,-0.646452)(0.000000,-0.000000)
 Singlet part of <S|| Hso(L0) ||S'> = (-0.000000,0.007786) (excluded from all matrix elements)
 L-/L+ Averaged reduced matrix elements:
 <S|| Hso(L-) ||S'> = (-0.000000,-0.000000)
 <S|| Hso(L+) ||S'> = (-0.000000,0.000000)
 ______________________________________________________________
   Arithmetically averaged transition SO matrices
   (The phases shown, Ket and Bra assingment are from A(Ket)->B(Bra))
 _________________________________________________
 One-electron SO (cm-1)
 SOCC = 2.232491
 Actual matrix elements:
       |Sz=0.00>
 <Sz=-1.00|(0.000000,-0.000000)
 <Sz=0.00|(0.000000,2.232491)
 <Sz=1.00|(0.000000,0.000000)
 _________________________________________________
 Mean-field SO (cm-1)
 SOCC = 1.335412
 Actual matrix elements:
       |Sz=0.00>
 <Sz=-1.00|(0.000000,-0.000000)
 <Sz=0.00|(0.000000,1.335412)
 <Sz=1.00|(0.000000,0.000000)
 ______________________________________________________________

 ------------------------------------------------------------------------------
 State A: eomip_mp2/a: 1/B2
 State B: eomip_mp2/a: 2/B2
 Energy GAP = 0.195628 a.u. = 5.323315 eV
 Transition dipole moment (a.u.):
   A->B: 0.128860 (X 0.000000, Y 0.000000, Z 0.128860)
   B->A: 0.128202 (X 0.000000, Y 0.000000, Z 0.128202)
 Oscillator strength (a.u.): 0.002155
 Transition angular momentum against gauge origin (a.u.):
   A->B:  (X 0.000000i, Y 0.000000i, Z 0.000000i)
   B->A:  (X 0.000000i, Y 0.000000i, Z 0.000000i)
 Norm of one-particle transition density matrix:
   A->B: 0.332306;   B->A: 0.326744
   ||gamma^AB||*||gamma^BA||: 0.108579

 ______________________________________________________________
 A(Ket)->B(Bra) transition SO matrices
Full 2e SOC is not implemented withing libqints. 
I will do mean-field SOC with libqints, which is usually as good as full 2e SOC
 Analysing Sz ans S^2 of the pair of states...
 Ket state:  Computed S^2 = 0.000549 will be treated as 0.000000 Sz = 0.000000
 Bra state:  Computed S^2 = 0.005280 will be treated as 0.000000 Sz = 0.000000
 Clebsh-Gordan coefficient: <0.000,0.000;1.000,0.000|0.000,0.000> = 0.000
WARNING! Clebsh-Gordon coefficient is too small to find a rotationally invariant part of triplet density.
Please use another EOM approach with non-zero Clebsh-Gordon coefficients
I am going to skip this transition
 ______________________________________________________________
 B(Ket)->A(Bra) transition SO matrices
Full 2e SOC is not implemented withing libqints. 
I will do mean-field SOC with libqints, which is usually as good as full 2e SOC
 Analysing Sz ans S^2 of the pair of states...
 Ket state:  Computed S^2 = 0.005 will be treated as 0.000 Sz = 0.000
 Bra state:  Computed S^2 = 0.001 will be treated as 0.000 Sz = 0.000
 Clebsh-Gordan coefficient: <0.000,0.000;1.000,0.000|0.000,0.000> = 0.000
WARNING! Clebsh-Gordon coefficient is too small to find a rotationally invariant part of triplet density.
Please use another EOM approach with non-zero Clebsh-Gordon coefficients
I am going to skip this transition
 ______________________________________________________________
   Arithmetically averaged transition SO matrices
   (The phases shown, Ket and Bra assingment are from A(Ket)->B(Bra))
 ______________________________________________________________

 ------------------------------------------------------------------------------
 State A: eomip_mp2/a: 1/B2
 State B: eomip_mp2/a: 3/B2
 Energy GAP = 0.483 a.u. = 13.136 eV
 Transition dipole moment (a.u.):
   A->B: 0.025945 (X 0.000000, Y 0.000000, Z -0.025945)
   B->A: 0.023421 (X 0.000000, Y 0.000000, Z -0.023421)
 Oscillator strength (a.u.): 0.000196
 Transition angular momentum against gauge origin (a.u.):
   A->B:  (X 0.000000i, Y 0.000000i, Z 0.000000i)
   B->A:  (X 0.000000i, Y 0.000000i, Z 0.000000i)
 Norm of one-particle transition density matrix:
   A->B: 0.102457;   B->A: 0.094815
   ||gamma^AB||*||gamma^BA||: 0.009715

 ______________________________________________________________
 A(Ket)->B(Bra) transition SO matrices
Full 2e SOC is not implemented withing libqints. 
I will do mean-field SOC with libqints, which is usually as good as full 2e SOC
 Analysing Sz ans S^2 of the pair of states...
 Ket state:  Computed S^2 = 0.000549 will be treated as 0.000000 Sz = 0.000000
 Bra state:  Computed S^2 = 0.003444 will be treated as 0.000000 Sz = 0.000000
 Clebsh-Gordan coefficient: <0.000,0.000;1.000,0.000|0.000,0.000> = 0.000
WARNING! Clebsh-Gordon coefficient is too small to find a rotationally invariant part of triplet density.
Please use another EOM approach with non-zero Clebsh-Gordon coefficients
I am going to skip this transition
 ______________________________________________________________
 B(Ket)->A(Bra) transition SO matrices
Full 2e SOC is not implemented withing libqints. 
I will do mean-field SOC with libqints, which is usually as good as full 2e SOC
 Analysing Sz ans S^2 of the pair of states...
 Ket state:  Computed S^2 = 0.003 will be treated as 0.000 Sz = 0.000
 Bra state:  Computed S^2 = 0.001 will be treated as 0.000 Sz = 0.000
 Clebsh-Gordan coefficient: <0.000,0.000;1.000,0.000|0.000,0.000> = 0.000
WARNING! Clebsh-Gordon coefficient is too small to find a rotationally invariant part of triplet density.
Please use another EOM approach with non-zero Clebsh-Gordon coefficients
I am going to skip this transition
 ______________________________________________________________
   Arithmetically averaged transition SO matrices
   (The phases shown, Ket and Bra assingment are from A(Ket)->B(Bra))
 ______________________________________________________________

 ------------------------------------------------------------------------------
 State A: eomip_mp2/a: 1/B2
 State B: eomip_mp2/a: 4/B2
 Energy GAP = 0.761 a.u. = 20.704 eV
 Transition dipole moment (a.u.):
   A->B: 0.016953 (X 0.000000, Y 0.000000, Z -0.016953)
   B->A: 0.013712 (X 0.000000, Y 0.000000, Z -0.013712)
 Oscillator strength (a.u.): 0.000118
 Transition angular momentum against gauge origin (a.u.):
   A->B:  (X 0.000000i, Y 0.000000i, Z 0.000000i)
   B->A:  (X 0.000000i, Y 0.000000i, Z 0.000000i)
 Norm of one-particle transition density matrix:
   A->B: 0.540479;   B->A: 0.542542
   ||gamma^AB||*||gamma^BA||: 0.293232

 ______________________________________________________________
 A(Ket)->B(Bra) transition SO matrices
Full 2e SOC is not implemented withing libqints. 
I will do mean-field SOC with libqints, which is usually as good as full 2e SOC
 Analysing Sz ans S^2 of the pair of states...
 Ket state:  Computed S^2 = 0.000549 will be treated as 0.000000 Sz = 0.000000
 Bra state:  Computed S^2 = 1.994323 will be treated as 2.000000 Sz = 0.000000
 Clebsh-Gordan coefficient: <0.000,0.000;1.000,0.000|1.000,0.000> = 1.000
 _________________________________________________
 One-electron SO (cm-1)
 Reduced matrix elements:
 <S|| Hso(L-) ||S'> = (0.000000,-0.000000)
 <S|| Hso(L0) ||S'> = (0.000000,0.000000)
 <S|| Hso(L+) ||S'> = (0.000000,0.000000)
 SOCC = 0.000000
 Actual matrix elements:
       |Sz=0.00>
 <Sz=-1.00|(0.000000,0.000000)
 <Sz=0.00|(0.000000,0.000000)
 <Sz=1.00|(0.000000,-0.000000)
 _________________________________________________
 Mean-field SO (cm-1)
 Reduced matrix elements:
 <S|| Hso(L-) ||S'> = (0.000000,-0.000000)
 <S|| Hso(L0) ||S'> = (0.000000,0.000000)
 <S|| Hso(L+) ||S'> = (0.000000,0.000000)
 SOCC = 0.000000
 Actual matrix elements:
       |Sz=0.00>
 <Sz=-1.00|(0.000000,0.000000)
 <Sz=0.00|(0.000000,0.000000)
 <Sz=1.00|(0.000000,-0.000000)
 Singlet part of <S|| Hso(L0) ||S'> = (-0.000000,-0.000000) (excluded from all matrix elements)
 L-/L+ Averaged reduced matrix elements:
 <S|| Hso(L-) ||S'> = (0.000000,-0.000000)
 <S|| Hso(L+) ||S'> = (0.000000,0.000000)
 ______________________________________________________________
 B(Ket)->A(Bra) transition SO matrices
Full 2e SOC is not implemented withing libqints. 
I will do mean-field SOC with libqints, which is usually as good as full 2e SOC
 Analysing Sz ans S^2 of the pair of states...
 Ket state:  Computed S^2 = 1.994323 will be treated as 2.000000 Sz = 0.000000
 Bra state:  Computed S^2 = 0.000549 will be treated as 0.000000 Sz = 0.000000
 Clebsh-Gordan coefficient: <1.000,0.000;1.000,0.000|0.000,0.000> = 0.577
 _________________________________________________
 One-electron SO (cm-1)
 Reduced matrix elements:
 <S|| Hso(L-) ||S'> = (-0.000000,0.000000)
 <S|| Hso(L0) ||S'> = (0.000000,-0.000000)
 <S|| Hso(L+) ||S'> = (-0.000000,-0.000000)
 SOCC = 0.000000
 Actual matrix elements:
       |Sz=-1.00>           |Sz=0.00>           |Sz=1.00>
 <Sz=0.00|(0.000000,-0.000000)(0.000000,-0.000000)(0.000000,0.000000)
 _________________________________________________
 Mean-field SO (cm-1)
 Reduced matrix elements:
 <S|| Hso(L-) ||S'> = (-0.000000,0.000000)
 <S|| Hso(L0) ||S'> = (0.000000,-0.000000)
 <S|| Hso(L+) ||S'> = (-0.000000,-0.000000)
 SOCC = 0.000000
 Actual matrix elements:
       |Sz=-1.00>           |Sz=0.00>           |Sz=1.00>
 <Sz=0.00|(0.000000,-0.000000)(0.000000,-0.000000)(0.000000,0.000000)
 Singlet part of <S|| Hso(L0) ||S'> = (-0.000000,0.000000) (excluded from all matrix elements)
 L-/L+ Averaged reduced matrix elements:
 <S|| Hso(L-) ||S'> = (-0.000000,0.000000)
 <S|| Hso(L+) ||S'> = (-0.000000,-0.000000)
 ______________________________________________________________
   Arithmetically averaged transition SO matrices
   (The phases shown, Ket and Bra assingment are from A(Ket)->B(Bra))
 _________________________________________________
 One-electron SO (cm-1)
 SOCC = 0.000000
 Actual matrix elements:
       |Sz=0.00>
 <Sz=-1.00|(0.000000,0.000000)
 <Sz=0.00|(0.000000,0.000000)
 <Sz=1.00|(0.000000,-0.000000)
 _________________________________________________
 Mean-field SO (cm-1)
 SOCC = 0.000000
 Actual matrix elements:
       |Sz=0.00>
 <Sz=-1.00|(0.000000,0.000000)
 <Sz=0.00|(0.000000,0.000000)
 <Sz=1.00|(0.000000,-0.000000)
 ______________________________________________________________

 ------------------------------------------------------------------------------
 State A: eomip_mp2/a: 1/B2
 State B: eomip_mp2/a: 5/B2
 Energy GAP = 0.867455 a.u. = 23.604663 eV
 Transition dipole moment (a.u.):
   A->B: 0.055434 (X 0.000000, Y 0.000000, Z -0.055434)
   B->A: 0.049420 (X 0.000000, Y 0.000000, Z -0.049420)
 Oscillator strength (a.u.): 0.001584
 Transition angular momentum against gauge origin (a.u.):
   A->B:  (X 0.000000i, Y 0.000000i, Z 0.000000i)
   B->A:  (X 0.000000i, Y 0.000000i, Z 0.000000i)
 Norm of one-particle transition density matrix:
   A->B: 0.834140;   B->A: 0.838331
   ||gamma^AB||*||gamma^BA||: 0.699285

 ______________________________________________________________
 A(Ket)->B(Bra) transition SO matrices
Full 2e SOC is not implemented withing libqints. 
I will do mean-field SOC with libqints, which is usually as good as full 2e SOC
 Analysing Sz ans S^2 of the pair of states...
 Ket state:  Computed S^2 = 0.000549 will be treated as 0.000000 Sz = 0.000000
 Bra state:  Computed S^2 = 1.973502 will be treated as 2.000000 Sz = 0.000000
 Clebsh-Gordan coefficient: <0.000,0.000;1.000,0.000|1.000,0.000> = 1.000
 _________________________________________________
 One-electron SO (cm-1)
 Reduced matrix elements:
 <S|| Hso(L-) ||S'> = (0.000000,-0.000000)
 <S|| Hso(L0) ||S'> = (0.000000,0.000000)
 <S|| Hso(L+) ||S'> = (0.000000,0.000000)
 SOCC = 0.000000
 Actual matrix elements:
       |Sz=0.00>
 <Sz=-1.00|(0.000000,0.000000)
 <Sz=0.00|(0.000000,0.000000)
 <Sz=1.00|(0.000000,-0.000000)
 _________________________________________________
 Mean-field SO (cm-1)
 Reduced matrix elements:
 <S|| Hso(L-) ||S'> = (0.000000,-0.000000)
 <S|| Hso(L0) ||S'> = (0.000000,0.000000)
 <S|| Hso(L+) ||S'> = (0.000000,0.000000)
 SOCC = 0.000000
 Actual matrix elements:
       |Sz=0.00>
 <Sz=-1.00|(0.000000,0.000000)
 <Sz=0.00|(0.000000,0.000000)
 <Sz=1.00|(0.000000,-0.000000)
 Singlet part of <S|| Hso(L0) ||S'> = (-0.000000,-0.000000) (excluded from all matrix elements)
 L-/L+ Averaged reduced matrix elements:
 <S|| Hso(L-) ||S'> = (0.000000,-0.000000)
 <S|| Hso(L+) ||S'> = (0.000000,0.000000)
 ______________________________________________________________
 B(Ket)->A(Bra) transition SO matrices
Full 2e SOC is not implemented withing libqints. 
I will do mean-field SOC with libqints, which is usually as good as full 2e SOC
 Analysing Sz ans S^2 of the pair of states...
 Ket state:  Computed S^2 = 1.973502 will be treated as 2.000000 Sz = 0.000000
 Bra state:  Computed S^2 = 0.000549 will be treated as 0.000000 Sz = 0.000000
 Clebsh-Gordan coefficient: <1.000,0.000;1.000,0.000|0.000,0.000> = 0.577
 _________________________________________________
 One-electron SO (cm-1)
 Reduced matrix elements:
 <S|| Hso(L-) ||S'> = (-0.000000,0.000000)
 <S|| Hso(L0) ||S'> = (0.000000,-0.000000)
 <S|| Hso(L+) ||S'> = (-0.000000,-0.000000)
 SOCC = 0.000000
 Actual matrix elements:
       |Sz=-1.00>           |Sz=0.00>           |Sz=1.00>
 <Sz=0.00|(0.000000,-0.000000)(0.000000,-0.000000)(0.000000,0.000000)
 _________________________________________________
 Mean-field SO (cm-1)
 Reduced matrix elements:
 <S|| Hso(L-) ||S'> = (-0.000000,0.000000)
 <S|| Hso(L0) ||S'> = (0.000000,-0.000000)
 <S|| Hso(L+) ||S'> = (-0.000000,-0.000000)
 SOCC = 0.000000
 Actual matrix elements:
       |Sz=-1.00>           |Sz=0.00>           |Sz=1.00>
 <Sz=0.00|(0.000000,-0.000000)(0.000000,-0.000000)(0.000000,0.000000)
 Singlet part of <S|| Hso(L0) ||S'> = (-0.000000,0.000000) (excluded from all matrix elements)
 L-/L+ Averaged reduced matrix elements:
 <S|| Hso(L-) ||S'> = (-0.000000,0.000000)
 <S|| Hso(L+) ||S'> = (-0.000000,-0.000000)
 ______________________________________________________________
   Arithmetically averaged transition SO matrices
   (The phases shown, Ket and Bra assingment are from A(Ket)->B(Bra))
 _________________________________________________
 One-electron SO (cm-1)
 SOCC = 0.000000
 Actual matrix elements:
       |Sz=0.00>
 <Sz=-1.00|(0.000000,0.000000)
 <Sz=0.00|(0.000000,0.000000)
 <Sz=1.00|(0.000000,-0.000000)
 _________________________________________________
 Mean-field SO (cm-1)
 SOCC = 0.000000
 Actual matrix elements:
       |Sz=0.00>
 <Sz=-1.00|(0.000000,0.000000)
 <Sz=0.00|(0.000000,0.000000)
 <Sz=1.00|(0.000000,-0.000000)
 ______________________________________________________________


 All requested transition properties have been computed

 Transition Properties:   CPU 4.27 s  wall 4.30 s

 Total ccman2 time:   CPU 11.03 s  wall 11.02 s

 
 --------------------------------------------------------------
             Orbital Energies (a.u.) and Symmetries
 --------------------------------------------------------------
 
 Alpha MOs, Unrestricted
 -- Occupied --                  
-21.013  -1.894  -1.176  -1.098  -1.043
  1 A1    2 A1    1 B1    1 B2    3 A1                                         
 -- Virtual --                   
  0.050   0.175
  4 A1    2 B1                                                                 
 
 Beta MOs, Unrestricted
 -- Occupied --                  
-20.982  -1.721  -1.133  -0.984
  1 A1    2 A1    1 B1    3 A1                                                 
 -- Virtual --                   
 -0.209   0.080   0.196
  1 B2    4 A1    2 B1                                                         
 --------------------------------------------------------------
 
          Ground-State Mulliken Net Atomic Charges

     Atom                 Charge (a.u.)    Spin (a.u.)
  --------------------------------------------------------
      1 O                     0.678041       0.026545
      2 H                     0.660980      -0.013273
      3 H                     0.660980      -0.013273
  --------------------------------------------------------
  Sum of atomic charges =     2.000000
  Sum of spin   charges =    -0.000000

 -----------------------------------------------------------------
                    Cartesian Multipole Moments
 -----------------------------------------------------------------
    Charge (ESU x 10^10)
                 9.6064
    Dipole Moment (Debye)
         X       0.0000      Y       0.0000      Z      -2.7761
       Tot       2.7761
    Quadrupole Moments (Debye-Ang)
        XX      -0.2322     XY      -0.0000     YY      -3.3742
        XZ      -0.0000     YZ       0.0000     ZZ      -3.2435
    Octopole Moments (Debye-Ang^2)
       XXX       0.0000    XXY      -0.0000    XYY       0.0000
       YYY       0.0000    XXZ      -2.3945    XYZ      -0.0000
       YYZ      -0.1032    XZZ       0.0000    YZZ       0.0000
       ZZZ      -1.5115
    Hexadecapole Moments (Debye-Ang^3)
      XXXX      -1.1176   XXXY      -0.0000   XXYY      -0.9647
      XYYY      -0.0000   YYYY      -1.4904   XXXZ      -0.0000
      XXYZ       0.0000   XYYZ       0.0000   YYYZ       0.0000
      XXZZ      -0.2038   XYZZ      -0.0000   YYZZ      -0.7796
      XZZZ      -0.0000   YZZZ       0.0000   ZZZZ      -2.9392
 -----------------------------------------------------------------
 Mayer SCF Bond Order, atomic valence on the diagonal:

            1           2           3
    1   1.3940950   0.5425290   0.5425290
    2   0.5425290   0.5629297   0.0090844
    3   0.5425290   0.0090844   0.5629297


 Total job time:  14.19s(wall), 12.01s(cpu) 
 Wed Jan 17 21:10:25 2024

        *************************************************************
        *                                                           *
        *  Thank you very much for using Q-Chem.  Have a nice day.  *
        *                                                           *
        *************************************************************


