                  Welcome to Q-Chem
     A Quantum Leap Into The Future Of Chemistry


 Q-Chem 6.0 (devel), Q-Chem, Inc., Pleasanton, CA (2022)

 E. Epifanovsky,  A. T. B. Gilbert,  Xintian Feng,  Joonho Lee,  Yuezhi Mao,  
 N. Mardirossian,  P. Pokhilko,  A. White,  M. Wormit,  M. P. Coons,  
 A. L. Dempwolff,  Zhengting Gan,  D. Hait,  P. R. Horn,  L. D. Jacobson,  
 I. Kaliman,  J. Kussmann,  A. W. Lange,  Ka Un Lao,  D. S. Levine,  Jie Liu,  
 S. C. McKenzie,  A. F. Morrison,  K. Nanda,  F. Plasser,  D. R. Rehn,  
 M. L. Vidal,  Zhi-Qiang You,  Ying Zhu,  B. Alam,  B. Albrecht,  
 A. Aldossary,  E. Alguire,  J. H. Andersen,  V. Athavale,  D. Barton,  
 K. Begam,  A. Behn,  N. Bellonzi,  Y. A. Bernard,  E. J. Berquist,  
 H. Burton,  A. Carreras,  K. Carter-Fenk,  Romit Chakraborty,  
 Chandrima Chakravarty,  Junhan Chen,  A. D. Chien,  K. D. Closser,  
 V. Cofer-Shabica,  L. Cunha,  S. Dasgupta,  Jia Deng,  M. de Wergifosse,  
 M. Diedenhofen,  Hainam Do,  S. Ehlert,  Po-Tung Fang,  S. Fatehi,  
 Qingguo Feng,  T. Friedhoff,  B. Ganoe,  J. Gayvert,  Qinghui Ge,  
 G. Gidofalvi,  M. Goldey,  J. Gomes,  C. Gonzalez-Espinoza,  S. Gulania,  
 A. Gunina,  J. A. Gyamfi,  M. W. D. Hanson-Heine,  P. H. P. Harbach,  
 A. W. Hauser,  M. F. Herbst,  M. Hernandez Vera,  M. Hodecker,  
 Z. C. Holden,  S. Houck,  Xunkun Huang,  Kerwin Hui,  B. C. Huynh,  
 K. Ikeda,  M. Ivanov,  Hyunjun Ji,  Zuxin Jin,  Hanjie Jiang,  B. Kaduk,  
 S. Kaehler,  R. Kang,  K. Khistyaev,  Jaehoon Kim,  Yongbin Kim,  
 P. Klunzinger,  Z. Koczor-Benda,  Joong Hoon Koh,  D. Kosenkov,  
 Saikiran Kotaru,  L. Koulias,  T. Kowalczyk,  C. M. Krauter,  K. Kue,  
 A. Kunitsa,  T. Kus,  A. Landau,  K. V. Lawler,  D. Lefrancois,  S. Lehtola,  
 Rain Li,  Shaozhi Li,  Yi-Pei Li,  Jiashu Liang,  M. Liebenthal,  
 Hung-Hsuan Lin,  You-Sheng Lin,  Fenglai Liu,  Kuan-Yu Liu,  
 M. Loipersberger,  A. Luenser,  C. Malbon,  A. Manjanath,  P. Manohar,  
 E. Mansoor,  S. F. Manzer,  Shan-Ping Mao,  A. V. Marenich,  T. Markovich,  
 S. Mason,  F. Matz,  S. A. Maurer,  P. F. McLaughlin,  M. F. S. J. Menger,  
 J.-M. Mewes,  S. A. Mewes,  P. Morgante,  Mohammad Mostafanejad,  
 J. W. Mullinax,  K. J. Oosterbaan,  G. Paran,  V. Parravicini,  
 Alexander C. Paul,  Suranjan K. Paul,  F. Pavosevic,  Zheng Pei,  S. Prager,  
 E. I. Proynov,  E. Ramos,  B. Rana,  A. E. Rask,  A. Rettig,  R. M. Richard,  
 F. Rob,  E. Rossomme,  T. Scheele,  M. Scheurer,  M. Schneider,  
 P. E. Schneider,  N. Sergueev,  S. M. Sharada,  Hengyuan Shen,  
 W. Skomorowski,  D. W. Small,  C. J. Stein,  Yingli Su,  Yu-Chuan Su,  
 E. J. Sundstrom,  Zhen Tao,  J. Thirman,  Hung-Yi Tsai,  T. Tsuchimochi,  
 N. M. Tubman,  C. Utku,  S. P. Veccham,  O. Vydrov,  J. Wenzel,  
 Jonathan Wong,  J. Witte,  A. Yamada,  Chou-Hsun Yang,  Kun Yao,  
 S. Yeganeh,  S. R. Yost,  A. Zech,  F. Zeller,  Igor Ying Zhang,  
 Xing Zhang,  Yu Zhang,  D. Zuev,  A. Aspuru-Guzik,  A. T. Bell,  
 N. A. Besley,  K. B. Bravaya,  B. R. Brooks,  D. Casanova,  Jeng-Da Chai,  
 Hsing-Ta Chen,  S. Coriani,  C. J. Cramer,  A. E. DePrince, III,  
 R. A. DiStasio Jr.,  A. Dreuw,  B. D. Dunietz,  T. R. Furlani,  
 W. A. Goddard III,  S. Grimme,  S. Hammes-Schiffer,  T. Head-Gordon,  
 W. J. Hehre,  Chao-Ping Hsu,  T.-C. Jagau,  Yousung Jung,  A. Klamt,  
 Jing Kong,  D. S. Lambrecht,  Xiangyuan Li,  WanZhen Liang,  N. J. Mayhall,  
 C. W. McCurdy,  J. B. Neaton,  T. Neudecker,  C. Ochsenfeld,  
 J. A. Parkhill,  R. Peverati,  V. A. Rassolov,  Haisheng Ren,  Yihan Shao,  
 L. V. Slipchenko,  R. P. Steele,  J. E. Subotnik,  A. J. W. Thom,  
 A. Tkatchenko,  D. G. Truhlar,  T. Van Voorhis,  Fan Wang,  
 T. A. Wesolowski,  K. B. Whaley,  H. L. Woodcock III,  P. M. Zimmerman,  
 S. Faraji,  P. M. W. Gill,  M. Head-Gordon,  J. M. Herbert,  A. I. Krylov

 Contributors to earlier versions of Q-Chem not listed above: 
 R. D. Adamson,  B. Austin,  R. Baer,  J. Baker,  G. J. O. Beran,  
 K. Brandhorst,  S. T. Brown,  E. F. C. Byrd,  Arup K. Chakraborty,  
 G. K. L. Chan,  Chun-Min Chang,  Yunqing Chen,  C.-L. Cheng,  
 Siu Hung Chien,  D. M. Chipman,  D. L. Crittenden,  H. Dachsel,  
 R. J. Doerksen,  A. D. Dutoi,  R. G. Edgar,  J. Fosso-Tande,  
 L. Fusti-Molnar,  D. Ghosh,  A. Ghysels,  A. Golubeva-Zadorozhnaya,  
 J. Gonthier,  M. S. Gordon,  S. R. Gwaltney,  G. Hawkins,  J. E. Herr,  
 A. Heyden,  S. Hirata,  E. G. Hohenstein,  G. Kedziora,  F. J. Keil,  
 C. Kelley,  Jihan Kim,  R. A. King,  R. Z. Khaliullin,  P. P. Korambath,  
 W. Kurlancheek,  A. Laurent,  A. M. Lee,  M. S. Lee,  S. V. Levchenko,  
 Ching Yeh Lin,  D. Liotard,  E. Livshits,  R. C. Lochan,  I. Lotan,  
 L. A. Martinez-Martinez,  P. E. Maslen,  N. Nair,  D. P. O'Neill,  
 D. Neuhauser,  E. Neuscamman,  C. M. Oana,  R. Olivares-Amaya,  R. Olson,  
 T. M. Perrine,  B. Peters,  P. A. Pieniazek,  A. Prociuk,  Y. M. Rhee,  
 J. Ritchie,  M. A. Rohrdanz,  E. Rosta,  N. J. Russ,  H. F. Schaefer III,  
 M. W. Schmidt,  N. E. Schultz,  S. Sharma,  N. Shenvi,  C. D. Sherrill,  
 A. C. Simmonett,  A. Sodt,  T. Stein,  D. Stuck,  K. S. Thanthiriwatte,  
 V. Vanovschi,  L. Vogt,  Tao Wang,  A. Warshel,  M. A. Watson,  
 C. F. Williams,  Q. Wu,  X. Xu,  Jun Yang,  W. Zhang,  Yan Zhao

   Please cite Q-Chem as follows:
  "Software for the frontiers of quantum chemistry:
   An overview of developments in the Q-Chem 5 package"
   J. Chem. Phys. 155, 084801 (2021)
   https://doi.org/10.1063/5.0055522 (open access)

 Q-Chem 6.0.1 for Intel X86 EM64T Linux

 Parts of Q-Chem use Armadillo 9.900.5 (Nocturnal Misbehaviour).
 http://arma.sourceforge.net/

 Q-Chem begins on Thu Jan 18 01:31:51 2024  

 Host: atlas-fdr-login-01
0

     Scratch files written to ./qchem14651//
 Processing $rem in /scratch/abel/SOFTWARE/qchem/config/preferences:
 Processing $rem in /dipc/acebg/.qchemrc:
 Core orbitals will be frozen

 Checking the input file for inconsistencies... 	...done.

--------------------------------------------------------------
User input:
--------------------------------------------------------------
$comment
 RAS-SF CALCULATION
$end

$molecule
 READ h2o_singlet.molecule
$end

$rem
!**CALCULATION TYPE***     
JOBTYPE            sp    
BASIS             STO-3G

!***SCF REFERENCE***
!SKIP_SCFMAN        FALSE
!UNRESTRICTED       FALSE
!SCF_GUESS          core
!SCF_GUESS_MIX      FALSE
!SCF_GUESS_ALWAYS   FALSE
MAX_SCF_CYCLES     500
SCF_CONVERGENCE    10
!SCF_ALGORITHM      DIIS !DIIS,DM,DIIS_DM,GDM,DIIS_GDM,GD

!SYMMETRY           TRUE   !use of symmetry for calculating integrals
!SYM_IGNORE         FALSE  !turn off using symmetry
!SYM_TOL            5      !tolerance for determining point group
!USE_ABELIAN_SUBGROUP      !define to use abelian group

!THRESH             14
SCF_FINAL_PRINT     1 !0,1,2,3

!****CCSD****
CORRELATION        CCSD
!CC_CONVERGENCE     6
!CC_MAX_ITER        200
CC_PRINT	   2
!CHOLESKY_TOL       3 !Toler. decomposition 2e integrals
CC_REF_PROP  	   1 !one-particle CCSD properties calculation
!CC_REF_PROP_TE	   0 !two-particle CCSD properties calculation
!CC_MEMORY	   5600
!CC_FNO_THRESH
!CC_BACKEND	   XM !Used to specify the computational back-end of CCMAN2.

!****EOM****
METHOD             EOM-MP2
IP_STATES	   [4,4,4,4]
CC_STATE_TO_OPT    [4,1]
CC_EOM_PROP        1
CC_EOM_PROP_TE	   1
CC_TRANS_PROP      1
CALC_SOC           TRUE   !calculate SOC for EOM-CC, RAS-CI, ADC, TDDFT/TDA and TDDFT

!****MEMORY****
!MEM_TOTAL          70000 !Default 2000 MB
!MEM_STATIC         20000  !Default 64 MB

!**Molecular Properties and Analysis **                                                                                          
!POP_MULLIKEN       TRUE   !Run Mulliken population analysis
!LOWDIN_POPULATION  TRUE   !Run Löwdin population analysis
GUI                0       !Checkpoints generation
!STATE_ANALYSIS     TRUE

!**Wave function analysis of RAS-CI states: MOLDEN**
!PLOTS = 0     ! Note: This can be omitted, default is 0
!NTO_PAIRS = 2 ! Note: This can be omitted, default is 2
!GUI 0
!MOLDEN_FORMAT      TRUE
!PRINT_ORBITALS     15

!**Wave function analysis of RAS-CI state: CUBE**
!NTO_PAIRS = 2 ! Note: This can be omitted, default is 2
!PLOTS = 1
!GUI 0

!**SR-DFT**
!RAS_SRDFT           TRUE !Perform short-range density functional RAS-CI
!RAS_SRDFT_EXC       0 !EX functional. 0=HF. 
!RAS_SRDFT_ONLY_COR  TRUE !No use of EXC functional
!RAS_SRDFT_COR       srPBE !short-range correlation functional
!ras_srdft_0         TRUE !true: no iteration (one-shot); false: iteration
!RAS_OMEGA           400 !Coulomb range-separation parameter. def=400
!RAS_SRDFT_DAMP     0.5 !dumping factor. def=0.5
$end

!$plots
!   grid_points 100 100 100
!   grid_range  (-10,10) (-10,10) (-10,10)
!$end

--------------------------------------------------------------
 ----------------------------------------------------------------
             Standard Nuclear Orientation (Angstroms)
    I     Atom           X                Y                Z
 ----------------------------------------------------------------
    1      O       0.0000000000     0.0000000000     0.1155512138
    2      H      -0.8125311840    -0.0000000000    -0.4622048550
    3      H       0.8125311840    -0.0000000000    -0.4622048550
 ----------------------------------------------------------------
 Molecular Point Group                 C2v   NOp =  4
 Largest Abelian Subgroup              C2v   NOp =  4
 Nuclear Repulsion Energy =           8.81794733 hartrees
 There are        5 alpha and        5 beta electrons
 Requested basis set is STO-3G
 There are 4 shells and 7 basis functions
 Total memory of 2000 MB is distributed as follows: 
   MEM_STATIC is set to 192 MB
   QALLOC/CCMAN JOB total memory use is  1808 MB
 Warning: actual memory use might exceed 2000 MB

 Total QAlloc Memory Limit   2000 MB
 Mega-Array Size       188 MB
 MEM_STATIC part       192 MB


                       Distance Matrix (Angstroms)
             O (  1)   H (  2)
   H (  2)  0.997000
   H (  3)  0.997000  1.625062
 
 A cutoff of  1.0D-14 yielded     10 shell pairs
 There are        34 function pairs
 Smallest overlap matrix eigenvalue = 3.69E-01

 Scale SEOQF with 1.000000e+00/1.000000e+00/1.000000e+00

 Standard Electronic Orientation quadrupole field applied
 Nucleus-field energy     =    -0.0000000001 hartrees
 Guess from superposition of atomic densities
 Warning:  Energy on first SCF cycle will be non-variational
 SAD guess density has 10.000000 electrons

 -----------------------------------------------------------------------
  General SCF calculation program by
  Eric Jon Sundstrom, Paul Horn, Yuezhi Mao, Dmitri Zuev, Alec White,
  David Stuck, Shaama M.S., Shane Yost, Joonho Lee, David Small,
  Daniel Levine, Susi Lehtola, Hugh Burton, Evgeny Epifanovsky,
  Bang C. Huynh
 -----------------------------------------------------------------------
 Hartree-Fock
 A restricted SCF calculation will be
 performed using DIIS
 SCF converges when DIIS error is below 1.0e-10
 ---------------------------------------
  Cycle       Energy         DIIS error
 ---------------------------------------
    1     -74.5817223679      3.90e-01  
    2     -74.9207299108      6.68e-02  
    3     -74.9615158562      8.15e-03  
    4     -74.9619918050      1.63e-03  
    5     -74.9620170616      5.95e-05  
    6     -74.9620171310      1.07e-05  
    7     -74.9620171333      1.02e-07  
    8     -74.9620171333      8.93e-11  Convergence criterion met
 ---------------------------------------
 DFT Correlation    Energy =   0.00000000000000
 DFT Exchange       Energy =   0.00000000000000
 HF Exchange        Energy =  -9.07115723497444
 Kinetic            Energy =   0.00000000000000
 Nuclear Attraction Energy =   0.00000000000000
 One-Electron       Energy = -121.74063176216963
 Total Coulomb      Energy =  47.03182453781312
 Final Alpha MO Eigenvalues
            1           2           3           4           5           6
    1 -20.2397754  -1.2437470  -0.6040226  -0.4368842  -0.3852194   0.5573951
            7
    1   0.7101292
 SCF time:   CPU 0.08s  wall 1.00s 
 SCF   energy in the final basis set =      -74.9620171333
 Total energy in the final basis set =      -74.9620171333
 mp2 is not implemented in computing transition properties!


 ------------------------------------------------------------------------------

   CCMAN2: suite of methods based on coupled cluster
           and equation of motion theories.

   Components:
   * libvmm-1.3-trunk
     by Evgeny Epifanovsky, Ilya Kaliman.
   * libtensor-2.5-trunk
     by Evgeny Epifanovsky, Michael Wormit, Dmitry Zuev, Sam Manzer, 
        Ilya Kaliman.
   * libcc-2.5-trunk
     by Evgeny Epifanovsky, Arik Landau, Tomasz Kus, Kirill Khistyaev, 
        Dmitry Zuev, Prashant Manohar, Xintian Feng, Anna Krylov, 
        Matthew Goldey, Alec White, Thomas Jagau, Kaushik Nanda, 
        Anastasia Gunina, Alexander Kunitsa, Joonho Lee.

   CCMAN original authors:
   Anna I. Krylov, C. David Sherrill, Steven R. Gwaltney,
   Edward F. C. Byrd (2000)
   Sergey V. Levchenko, Lyudmila V. Slipchenko, Tao Wang,
   Ana-Maria C. Cristian (2003)
   Piotr A. Pieniazek, C. Melania Oana, Evgeny Epifanovsky (2007)
   Prashant Manohar (2009)

 ------------------------------------------------------------------------------


 Allocating and initializing 1808MB of RAM...
 Calculation will run on 1 core.

 
 Alpha MOs, Restricted
 -- Occupied --                  
-20.240  -1.244  -0.604  -0.437  -0.385
  1 A1    2 A1    1 B1    3 A1    1 B2                                         
 -- Virtual --                   
  0.557   0.710
  4 A1    2 B1                                                                 
 
 Beta MOs, Restricted
 -- Occupied --                  
-20.240  -1.244  -0.604  -0.437  -0.385
  1 A1    2 A1    1 B1    3 A1    1 B2                                         
 -- Virtual --                   
  0.557   0.710
  4 A1    2 B1                                                                 

 Occupation and symmetry of molecular orbitals

 Point group: C2v (4 irreducible representations).

                           A1   A2   B1   B2    All 
 ----------------------------------------------------
 All molecular orbitals:
  - Alpha                  4    0    2    1     7   
  - Beta                   4    0    2    1     7   
 ----------------------------------------------------
 Alpha orbitals:
  - Frozen occupied        1    0    0    0     1   
  - Active occupied        2    0    1    1     4   
  - Active virtual         1    0    1    0     2   
  - Frozen virtual         0    0    0    0     0   
 ----------------------------------------------------
 Beta orbitals:
  - Frozen occupied        1    0    0    0     1   
  - Active occupied        2    0    1    1     4   
  - Active virtual         1    0    1    0     2   
  - Frozen virtual         0    0    0    0     0   
 ----------------------------------------------------

 Import integrals:   CPU 0.00 s  wall 0.00 s

 Import integrals:   CPU 0.06 s  wall 0.11 s

 Computing CCSD intermediates for later calculations in double precision
 Finished.

 MP2 amplitudes:   CPU 0.16 s  wall 0.23 s

        Solving for EOMIP-CCSD A1 transitions.

Warning! Not enough singles to form guess subspace. Doubles guess vectors will be generated.
In case of poor EOM convergence, reduce requested IP_STATES.

Running a double precision version
      EOMIP-CCSD/MP2 right amplitudes will be solved using Davidson.
        Amplitudes will be solved using standard  algorithm.
     Hard-coded thresholds: 
     LinDepThresh=1.00e-15  NormThresh=1.00e-06  ReorthogonThresh=1.00e-02

      Roots     MaxVec    MaxIter   Precond   Conv      Shift    
      4         120       60        1         1.00e-05  0.00e+00  
 ------------------------------------------------------------------------------
      Iter ConvRoots NVecs ResNorm^2 Current eigenvalues (eV)
 ------------------------------------------------------------------------------
      0    0      4     5.12e-02   11.9418   29.3912   34.4329   50.3804   
      1    0      8     2.39e-02   10.2814   28.7817   32.6218   38.4207   
      2    0      12    7.56e-04   10.2112   28.4649   29.9965   31.5494   
      3    4      15    1.78e-30   10.2107*  28.3154*  29.9262*  30.0926*  

     Davidson procedure converged

 EOMIP transition 1/A1
 Total energy = -74.62489859 a.u.  Excitation energy = 10.2107 eV.
 R1^2 = 0.9463  R2^2 = 0.0537  Res^2 = 4.21e-31
 Conv-d = yes

 Amplitude    Transitions between orbitals
 -0.9721       3 (A1) A                  ->    infty        
  0.0352       2 (A1) A                  ->    infty        

              Summary of significant orbitals:

               Number  Type             Irrep      Energy
               2       Occ  Alpha       2 (A1)     -1.2437
               4       Occ  Alpha       3 (A1)     -0.4369


 EOMIP transition 2/A1
 Total energy = -73.95956304 a.u.  Excitation energy = 28.3154 eV.
 R1^2 = 0.1832  R2^2 = 0.8168  Res^2 = 2.54e-30
 Conv-d = yes

 Amplitude    Transitions between orbitals
 -0.7702       1 (B2) A      1 (B2) B    ->    4 (A1) B     
  0.7702       1 (B2) B      1 (B2) A    ->    4 (A1) B     
  0.3800       3 (A1) A      3 (A1) B    ->    4 (A1) B     
 -0.3800       3 (A1) B      3 (A1) A    ->    4 (A1) B     
 -0.2193       1 (B1) A      3 (A1) B    ->    2 (B1) B     
  0.2193       3 (A1) B      1 (B1) A    ->    2 (B1) B     
  0.1292       3 (A1) A      1 (B1) A    ->    2 (B1) A     
 -0.1292       1 (B1) A      3 (A1) A    ->    2 (B1) A     

              Summary of significant orbitals:

               Number  Type             Irrep      Energy
               4       Occ  Alpha       3 (A1)     -0.4369
               3       Occ  Alpha       1 (B1)     -0.6040
               5       Occ  Alpha       1 (B2)     -0.3852
               4       Occ  Beta        3 (A1)     -0.4369
               5       Occ  Beta        1 (B2)     -0.3852
               7       Vir  Alpha       2 (B1)      0.7101
               6       Vir  Beta        4 (A1)      0.5574
               7       Vir  Beta        2 (B1)      0.7101


 EOMIP transition 3/A1
 Total energy = -73.90036802 a.u.  Excitation energy = 29.9262 eV.
 R1^2 = 0.0000  R2^2 = 1.0000  Res^2 = 1.72e-30
 Conv-d = yes

 Amplitude    Transitions between orbitals
  0.5681       1 (B1) A      3 (A1) B    ->    2 (B1) B     
 -0.5681       3 (A1) B      1 (B1) A    ->    2 (B1) B     
 -0.5681       3 (A1) A      1 (B1) B    ->    2 (B1) B     
  0.5681       1 (B1) B      3 (A1) A    ->    2 (B1) B     
  0.5681       3 (A1) A      1 (B1) A    ->    2 (B1) A     
 -0.5681       1 (B1) A      3 (A1) A    ->    2 (B1) A     
 -0.1024       2 (A1) A      3 (A1) B    ->    4 (A1) B     
  0.1024       3 (A1) B      2 (A1) A    ->    4 (A1) B     
  0.1024       2 (A1) A      3 (A1) A    ->    4 (A1) A     
 -0.1024       3 (A1) A      2 (A1) A    ->    4 (A1) A     
  0.1024       3 (A1) A      2 (A1) B    ->    4 (A1) B     
 -0.1024       2 (A1) B      3 (A1) A    ->    4 (A1) B     

              Summary of significant orbitals:

               Number  Type             Irrep      Energy
               2       Occ  Alpha       2 (A1)     -1.2437
               4       Occ  Alpha       3 (A1)     -0.4369
               3       Occ  Alpha       1 (B1)     -0.6040
               2       Occ  Beta        2 (A1)     -1.2437
               4       Occ  Beta        3 (A1)     -0.4369
               3       Occ  Beta        1 (B1)     -0.6040
               6       Vir  Alpha       4 (A1)      0.5574
               7       Vir  Alpha       2 (B1)      0.7101
               6       Vir  Beta        4 (A1)      0.5574
               7       Vir  Beta        2 (B1)      0.7101


 EOMIP transition 4/A1
 Total energy = -73.89425517 a.u.  Excitation energy = 30.0926 eV.
 R1^2 = 0.0093  R2^2 = 0.9907  Res^2 = 2.46e-30
 Conv-d = yes

 Amplitude    Transitions between orbitals
 -0.7064       3 (A1) A      3 (A1) B    ->    4 (A1) B     
  0.7064       3 (A1) B      3 (A1) A    ->    4 (A1) B     
 -0.4655       1 (B2) A      1 (B2) B    ->    4 (A1) B     
  0.4655       1 (B2) B      1 (B2) A    ->    4 (A1) B     
 -0.2851       3 (A1) A      1 (B1) A    ->    2 (B1) A     
  0.2851       1 (B1) A      3 (A1) A    ->    2 (B1) A     
  0.2704       1 (B1) A      3 (A1) B    ->    2 (B1) B     
 -0.2704       3 (A1) B      1 (B1) A    ->    2 (B1) B     
  0.2247       1 (B1) A      1 (B1) B    ->    4 (A1) B     
 -0.2247       1 (B1) B      1 (B1) A    ->    4 (A1) B     
 -0.2052       2 (A1) A      3 (A1) B    ->    4 (A1) B     
  0.2052       3 (A1) B      2 (A1) A    ->    4 (A1) B     
 -0.1167       3 (A1) A      2 (A1) B    ->    4 (A1) B     
  0.1167       2 (A1) B      3 (A1) A    ->    4 (A1) B     

              Summary of significant orbitals:

               Number  Type             Irrep      Energy
               2       Occ  Alpha       2 (A1)     -1.2437
               4       Occ  Alpha       3 (A1)     -0.4369
               3       Occ  Alpha       1 (B1)     -0.6040
               5       Occ  Alpha       1 (B2)     -0.3852
               2       Occ  Beta        2 (A1)     -1.2437
               4       Occ  Beta        3 (A1)     -0.4369
               3       Occ  Beta        1 (B1)     -0.6040
               5       Occ  Beta        1 (B2)     -0.3852
               7       Vir  Alpha       2 (B1)      0.7101
               6       Vir  Beta        4 (A1)      0.5574
               7       Vir  Beta        2 (B1)      0.7101


Running a double precision version
      EOMIP-CCSD/MP2 left amplitudes will be solved using Davidson.
        Amplitudes will be solved using MOM  algorithm.
     Hard-coded thresholds: 
     LinDepThresh=1.00e-15  NormThresh=1.00e-06  ReorthogonThresh=1.00e-02

      Roots     MaxVec    MaxIter   Precond   Conv      Shift    
      4         120       60        1         1.00e-05  0.00e+00  
 ------------------------------------------------------------------------------
      Iter ConvRoots NVecs ResNorm^2 Current eigenvalues (eV)
 ------------------------------------------------------------------------------
      0    1      4     2.98e-04   10.2107   28.3154   29.9262*  30.0926   
      1    2      7     1.59e-05   10.2107   28.3154*  29.9262*  30.0926   
      2    4      9     5.16e-06   10.2107*  28.3154*  29.9262*  30.0926*  

     Davidson procedure converged

 EOMIP-CCSD transition 1/A1
S^2 calculation will be performed in  double precision
 EOMIP-CCSD transition 2/A1
S^2 calculation will be performed in  double precision
 EOMIP-CCSD transition 3/A1
S^2 calculation will be performed in  double precision
 EOMIP-CCSD transition 4/A1
S^2 calculation will be performed in  double precision
 Excited state properties for  EOMIP-CCSD transition 1/A1
 Dipole moment (a.u.): 0.726251 (X 0.000000, Y 0.000000, Z -0.726251)
 R-squared (a.u.): 14.381290 (XX 6.017342, YY 4.040767, ZZ 4.323181)
 Gauge origin (a.u.): (0.000000, 0.000000, 0.000000)
 Angular momentum (a.u.) against gauge origin: 
 (X 0.000000i, Y 0.000000i, Z 0.000000i)
 Traces of the OPDMs: Tr(AA) 4.000000, Tr(BB) 5.000000
 <S^2> = 0.750000

 Excited state properties for  EOMIP-CCSD transition 2/A1
 Dipole moment (a.u.): 0.178621 (X 0.000000, Y 0.000000, Z 0.178621)
 R-squared (a.u.): 18.646253 (XX 8.974807, YY 3.682180, ZZ 5.989266)
 Gauge origin (a.u.): (0.000000, 0.000000, 0.000000)
 Angular momentum (a.u.) against gauge origin: 
 (X 0.000000i, Y 0.000000i, Z 0.000000i)
 Traces of the OPDMs: Tr(AA) 4.000000, Tr(BB) 5.000000
 <S^2> = 0.750000

 Excited state properties for  EOMIP-CCSD transition 3/A1
 Dipole moment (a.u.): 0.195788 (X 0.000000, Y 0.000000, Z -0.195788)
 R-squared (a.u.): 16.796198 (XX 7.525982, YY 4.142054, ZZ 5.128161)
 Gauge origin (a.u.): (0.000000, 0.000000, 0.000000)
 Angular momentum (a.u.) against gauge origin: 
 (X 0.000000i, Y 0.000000i, Z 0.000000i)
 Traces of the OPDMs: Tr(AA) 4.000000, Tr(BB) 5.000000
 <S^2> = 3.750000

 Excited state properties for  EOMIP-CCSD transition 4/A1
 Dipole moment (a.u.): 0.074280 (X 0.000000, Y 0.000000, Z 0.074280)
 R-squared (a.u.): 18.076883 (XX 8.623270, YY 4.094039, ZZ 5.359574)
 Gauge origin (a.u.): (0.000000, 0.000000, 0.000000)
 Angular momentum (a.u.) against gauge origin: 
 (X 0.000000i, Y 0.000000i, Z 0.000000i)
 Traces of the OPDMs: Tr(AA) 4.000000, Tr(BB) 5.000000
 <S^2> = 0.750000

        Solving for EOMIP-CCSD A2 transitions.

Warning! Not enough singles to form guess subspace. Doubles guess vectors will be generated.
In case of poor EOM convergence, reduce requested IP_STATES.

Running a double precision version
      EOMIP-CCSD/MP2 right amplitudes will be solved using Davidson.
        Amplitudes will be solved using standard  algorithm.
     Hard-coded thresholds: 
     LinDepThresh=1.00e-15  NormThresh=1.00e-06  ReorthogonThresh=1.00e-02

      Roots     MaxVec    MaxIter   Precond   Conv      Shift    
      4         120       60        1         1.00e-05  0.00e+00  
 ------------------------------------------------------------------------------
      Iter ConvRoots NVecs ResNorm^2 Current eigenvalues (eV)
 ------------------------------------------------------------------------------
      0    0      4     8.18e-03   27.4738   29.5483   30.9199   33.1977   
      1    0      8     1.68e-03   25.8778   28.8360   29.6331   31.1347   
      2    4      9     9.63e-31   25.8038*  28.4554*  28.8733*  31.1069*  

     Davidson procedure converged

 EOMIP transition 1/A2
 Total energy = -74.05186517 a.u.  Excitation energy = 25.8038 eV.
 R1^2 = 0.0000  R2^2 = 1.0000  Res^2 = 6.46e-31
 Conv-d = yes

 Amplitude    Transitions between orbitals
 -0.4256       3 (A1) A      1 (B2) B    ->    2 (B1) B     
  0.4256       1 (B2) B      3 (A1) A    ->    2 (B1) B     
  0.4256       1 (B2) A      3 (A1) B    ->    2 (B1) B     
 -0.4256       3 (A1) B      1 (B2) A    ->    2 (B1) B     
  0.4256       3 (A1) A      1 (B2) A    ->    2 (B1) A     
 -0.4256       1 (B2) A      3 (A1) A    ->    2 (B1) A     
  0.3866       1 (B1) A      1 (B2) B    ->    4 (A1) B     
 -0.3866       1 (B2) B      1 (B1) A    ->    4 (A1) B     
 -0.3866       1 (B1) A      1 (B2) A    ->    4 (A1) A     
  0.3866       1 (B2) A      1 (B1) A    ->    4 (A1) A     
 -0.3866       1 (B2) A      1 (B1) B    ->    4 (A1) B     
  0.3866       1 (B1) B      1 (B2) A    ->    4 (A1) B     

              Summary of significant orbitals:

               Number  Type             Irrep      Energy
               4       Occ  Alpha       3 (A1)     -0.4369
               3       Occ  Alpha       1 (B1)     -0.6040
               5       Occ  Alpha       1 (B2)     -0.3852
               4       Occ  Beta        3 (A1)     -0.4369
               3       Occ  Beta        1 (B1)     -0.6040
               5       Occ  Beta        1 (B2)     -0.3852
               6       Vir  Alpha       4 (A1)      0.5574
               7       Vir  Alpha       2 (B1)      0.7101
               6       Vir  Beta        4 (A1)      0.5574
               7       Vir  Beta        2 (B1)      0.7101


 EOMIP transition 2/A2
 Total energy = -73.95442097 a.u.  Excitation energy = 28.4554 eV.
 R1^2 = 0.0000  R2^2 = 1.0000  Res^2 = 2.45e-30
 Conv-d = yes

 Amplitude    Transitions between orbitals
  0.5742       3 (A1) A      1 (B2) B    ->    2 (B1) B     
 -0.5742       1 (B2) B      3 (A1) A    ->    2 (B1) B     
 -0.5617       1 (B1) A      1 (B2) B    ->    4 (A1) B     
  0.5617       1 (B2) B      1 (B1) A    ->    4 (A1) B     
  0.3672       3 (A1) A      1 (B2) A    ->    2 (B1) A     
 -0.3672       1 (B2) A      3 (A1) A    ->    2 (B1) A     
 -0.3273       1 (B2) A      1 (B1) B    ->    4 (A1) B     
  0.3273       1 (B1) B      1 (B2) A    ->    4 (A1) B     
 -0.2345       1 (B1) A      1 (B2) A    ->    4 (A1) A     
  0.2345       1 (B2) A      1 (B1) A    ->    4 (A1) A     
  0.2070       1 (B2) A      3 (A1) B    ->    2 (B1) B     
 -0.2070       3 (A1) B      1 (B2) A    ->    2 (B1) B     

              Summary of significant orbitals:

               Number  Type             Irrep      Energy
               4       Occ  Alpha       3 (A1)     -0.4369
               3       Occ  Alpha       1 (B1)     -0.6040
               5       Occ  Alpha       1 (B2)     -0.3852
               4       Occ  Beta        3 (A1)     -0.4369
               3       Occ  Beta        1 (B1)     -0.6040
               5       Occ  Beta        1 (B2)     -0.3852
               6       Vir  Alpha       4 (A1)      0.5574
               7       Vir  Alpha       2 (B1)      0.7101
               6       Vir  Beta        4 (A1)      0.5574
               7       Vir  Beta        2 (B1)      0.7101


 EOMIP transition 3/A2
 Total energy = -73.93906335 a.u.  Excitation energy = 28.8733 eV.
 R1^2 = 0.0000  R2^2 = 1.0000  Res^2 = 4.35e-31
 Conv-d = yes

 Amplitude    Transitions between orbitals
  0.4217       1 (B2) A      1 (B1) B    ->    4 (A1) B     
 -0.4217       1 (B1) B      1 (B2) A    ->    4 (A1) B     
  0.4217       1 (B1) A      1 (B2) A    ->    4 (A1) A     
 -0.4217       1 (B2) A      1 (B1) A    ->    4 (A1) A     
 -0.4217       1 (B1) A      1 (B2) B    ->    4 (A1) B     
  0.4217       1 (B2) B      1 (B1) A    ->    4 (A1) B     
 -0.3895       3 (A1) A      1 (B2) B    ->    2 (B1) B     
  0.3895       1 (B2) B      3 (A1) A    ->    2 (B1) B     
  0.3895       1 (B2) A      3 (A1) B    ->    2 (B1) B     
 -0.3895       3 (A1) B      1 (B2) A    ->    2 (B1) B     
  0.3895       3 (A1) A      1 (B2) A    ->    2 (B1) A     
 -0.3895       1 (B2) A      3 (A1) A    ->    2 (B1) A     

              Summary of significant orbitals:

               Number  Type             Irrep      Energy
               4       Occ  Alpha       3 (A1)     -0.4369
               3       Occ  Alpha       1 (B1)     -0.6040
               5       Occ  Alpha       1 (B2)     -0.3852
               4       Occ  Beta        3 (A1)     -0.4369
               3       Occ  Beta        1 (B1)     -0.6040
               5       Occ  Beta        1 (B2)     -0.3852
               6       Vir  Alpha       4 (A1)      0.5574
               7       Vir  Alpha       2 (B1)      0.7101
               6       Vir  Beta        4 (A1)      0.5574
               7       Vir  Beta        2 (B1)      0.7101


 EOMIP transition 4/A2
 Total energy = -73.85697759 a.u.  Excitation energy = 31.1069 eV.
 R1^2 = 0.0000  R2^2 = 1.0000  Res^2 = 3.17e-31
 Conv-d = yes

 Amplitude    Transitions between orbitals
  0.6395       3 (A1) A      1 (B2) A    ->    2 (B1) A     
 -0.6395       1 (B2) A      3 (A1) A    ->    2 (B1) A     
 -0.5010       1 (B2) A      3 (A1) B    ->    2 (B1) B     
  0.5010       3 (A1) B      1 (B2) A    ->    2 (B1) B     
  0.4559       1 (B1) A      1 (B2) A    ->    4 (A1) A     
 -0.4559       1 (B2) A      1 (B1) A    ->    4 (A1) A     
  0.2766       1 (B1) A      1 (B2) B    ->    4 (A1) B     
 -0.2766       1 (B2) B      1 (B1) A    ->    4 (A1) B     
 -0.1792       1 (B2) A      1 (B1) B    ->    4 (A1) B     
  0.1792       1 (B1) B      1 (B2) A    ->    4 (A1) B     
  0.1386       3 (A1) A      1 (B2) B    ->    2 (B1) B     
 -0.1386       1 (B2) B      3 (A1) A    ->    2 (B1) B     

              Summary of significant orbitals:

               Number  Type             Irrep      Energy
               4       Occ  Alpha       3 (A1)     -0.4369
               3       Occ  Alpha       1 (B1)     -0.6040
               5       Occ  Alpha       1 (B2)     -0.3852
               4       Occ  Beta        3 (A1)     -0.4369
               3       Occ  Beta        1 (B1)     -0.6040
               5       Occ  Beta        1 (B2)     -0.3852
               6       Vir  Alpha       4 (A1)      0.5574
               7       Vir  Alpha       2 (B1)      0.7101
               6       Vir  Beta        4 (A1)      0.5574
               7       Vir  Beta        2 (B1)      0.7101


Running a double precision version
      EOMIP-CCSD/MP2 left amplitudes will be solved using Davidson.
        Amplitudes will be solved using MOM  algorithm.
     Hard-coded thresholds: 
     LinDepThresh=1.00e-15  NormThresh=1.00e-06  ReorthogonThresh=1.00e-02

      Roots     MaxVec    MaxIter   Precond   Conv      Shift    
      4         120       60        1         1.00e-05  0.00e+00  
 ------------------------------------------------------------------------------
      Iter ConvRoots NVecs ResNorm^2 Current eigenvalues (eV)
 ------------------------------------------------------------------------------
      0    4      4     1.61e-06   25.8038*  28.4554*  28.8733*  31.1069*  

     Davidson procedure converged

 EOMIP-CCSD transition 1/A2
S^2 calculation will be performed in  double precision
 EOMIP-CCSD transition 2/A2
S^2 calculation will be performed in  double precision
 EOMIP-CCSD transition 3/A2
S^2 calculation will be performed in  double precision
 EOMIP-CCSD transition 4/A2
S^2 calculation will be performed in  double precision
 Excited state properties for  EOMIP-CCSD transition 1/A2
 Dipole moment (a.u.): 0.054135 (X 0.000000, Y 0.000000, Z 0.054135)
 R-squared (a.u.): 18.256383 (XX 8.687156, YY 3.729770, ZZ 5.839458)
 Gauge origin (a.u.): (0.000000, 0.000000, 0.000000)
 Angular momentum (a.u.) against gauge origin: 
 (X 0.000000i, Y 0.000000i, Z 0.000000i)
 Traces of the OPDMs: Tr(AA) 4.000000, Tr(BB) 5.000000
 <S^2> = 3.750000

 Excited state properties for  EOMIP-CCSD transition 2/A2
 Dipole moment (a.u.): 0.019616 (X 0.000000, Y 0.000000, Z 0.019616)
 R-squared (a.u.): 18.239275 (XX 8.642923, YY 3.731142, ZZ 5.865211)
 Gauge origin (a.u.): (0.000000, 0.000000, 0.000000)
 Angular momentum (a.u.) against gauge origin: 
 (X 0.000000i, Y 0.000000i, Z 0.000000i)
 Traces of the OPDMs: Tr(AA) 4.000000, Tr(BB) 5.000000
 <S^2> = 0.750000

 Excited state properties for  EOMIP-CCSD transition 3/A2
 Dipole moment (a.u.): 0.222952 (X 0.000000, Y 0.000000, Z 0.222952)
 R-squared (a.u.): 18.346045 (XX 8.693855, YY 3.742465, ZZ 5.909725)
 Gauge origin (a.u.): (0.000000, 0.000000, 0.000000)
 Angular momentum (a.u.) against gauge origin: 
 (X 0.000000i, Y 0.000000i, Z 0.000000i)
 Traces of the OPDMs: Tr(AA) 4.000000, Tr(BB) 5.000000
 <S^2> = 3.750000

 Excited state properties for  EOMIP-CCSD transition 4/A2
 Dipole moment (a.u.): 0.164697 (X 0.000000, Y 0.000000, Z 0.164697)
 R-squared (a.u.): 18.324661 (XX 8.865142, YY 3.718516, ZZ 5.741003)
 Gauge origin (a.u.): (0.000000, 0.000000, 0.000000)
 Angular momentum (a.u.) against gauge origin: 
 (X 0.000000i, Y 0.000000i, Z 0.000000i)
 Traces of the OPDMs: Tr(AA) 4.000000, Tr(BB) 5.000000
 <S^2> = 0.750000

        Solving for EOMIP-CCSD B1 transitions.

Warning! Not enough singles to form guess subspace. Doubles guess vectors will be generated.
In case of poor EOM convergence, reduce requested IP_STATES.

Running a double precision version
      EOMIP-CCSD/MP2 right amplitudes will be solved using Davidson.
        Amplitudes will be solved using standard  algorithm.
     Hard-coded thresholds: 
     LinDepThresh=1.00e-15  NormThresh=1.00e-06  ReorthogonThresh=1.00e-02

      Roots     MaxVec    MaxIter   Precond   Conv      Shift    
      4         120       60        1         1.00e-05  0.00e+00  
 ------------------------------------------------------------------------------
      Iter ConvRoots NVecs ResNorm^2 Current eigenvalues (eV)
 ------------------------------------------------------------------------------
      0    0      5     1.93e-02   16.6029   28.9161   33.5549   35.3315   
      1    1      9     7.39e-03   16.0157   28.4761*  32.6759   33.6579   
      2    1      12    2.39e-04   16.0016   28.4759*  30.8555   33.4205   
      3    4      14    2.84e-30   16.0020*  28.4759*  30.3957*  31.3228*  

     Davidson procedure converged

 EOMIP transition 1/B1
 Total energy = -74.41207260 a.u.  Excitation energy = 16.0020 eV.
 R1^2 = 0.9735  R2^2 = 0.0265  Res^2 = 1.77e-30
 Conv-d = yes

 Amplitude    Transitions between orbitals
 -0.9867       1 (B1) A                  ->    infty        

              Summary of significant orbitals:

               Number  Type             Irrep      Energy
               3       Occ  Alpha       1 (B1)     -0.6040


 EOMIP transition 2/B1
 Total energy = -73.95366627 a.u.  Excitation energy = 28.4759 eV.
 R1^2 = 0.0000  R2^2 = 1.0000  Res^2 = 3.06e-30
 Conv-d = yes

 Amplitude    Transitions between orbitals
 -0.5698       1 (B1) A      3 (A1) B    ->    4 (A1) B     
  0.5698       3 (A1) B      1 (B1) A    ->    4 (A1) B     
  0.5698       3 (A1) A      1 (B1) B    ->    4 (A1) B     
 -0.5698       1 (B1) B      3 (A1) A    ->    4 (A1) B     
 -0.5698       3 (A1) A      1 (B1) A    ->    4 (A1) A     
  0.5698       1 (B1) A      3 (A1) A    ->    4 (A1) A     

              Summary of significant orbitals:

               Number  Type             Irrep      Energy
               4       Occ  Alpha       3 (A1)     -0.4369
               3       Occ  Alpha       1 (B1)     -0.6040
               4       Occ  Beta        3 (A1)     -0.4369
               3       Occ  Beta        1 (B1)     -0.6040
               6       Vir  Alpha       4 (A1)      0.5574
               6       Vir  Beta        4 (A1)      0.5574


 EOMIP transition 3/B1
 Total energy = -73.88311306 a.u.  Excitation energy = 30.3957 eV.
 R1^2 = 0.0000  R2^2 = 1.0000  Res^2 = 1.88e-30
 Conv-d = yes

 Amplitude    Transitions between orbitals
  0.6585       1 (B2) A      1 (B2) B    ->    2 (B1) B     
 -0.6585       1 (B2) B      1 (B2) A    ->    2 (B1) B     
 -0.6138       3 (A1) A      3 (A1) B    ->    2 (B1) B     
  0.6138       3 (A1) B      3 (A1) A    ->    2 (B1) B     
  0.3233       1 (B1) A      3 (A1) B    ->    4 (A1) B     
 -0.3233       3 (A1) B      1 (B1) A    ->    4 (A1) B     
 -0.2498       3 (A1) A      1 (B1) A    ->    4 (A1) A     
  0.2498       1 (B1) A      3 (A1) A    ->    4 (A1) A     
  0.1023       1 (B1) A      1 (B1) B    ->    2 (B1) B     
 -0.1023       1 (B1) B      1 (B1) A    ->    2 (B1) B     

              Summary of significant orbitals:

               Number  Type             Irrep      Energy
               4       Occ  Alpha       3 (A1)     -0.4369
               3       Occ  Alpha       1 (B1)     -0.6040
               5       Occ  Alpha       1 (B2)     -0.3852
               4       Occ  Beta        3 (A1)     -0.4369
               3       Occ  Beta        1 (B1)     -0.6040
               5       Occ  Beta        1 (B2)     -0.3852
               6       Vir  Alpha       4 (A1)      0.5574
               6       Vir  Beta        4 (A1)      0.5574
               7       Vir  Beta        2 (B1)      0.7101


 EOMIP transition 4/B1
 Total energy = -73.84904552 a.u.  Excitation energy = 31.3228 eV.
 R1^2 = 0.0010  R2^2 = 0.9990  Res^2 = 4.65e-30
 Conv-d = yes

 Amplitude    Transitions between orbitals
 -0.7249       1 (B2) A      1 (B2) B    ->    2 (B1) B     
  0.7249       1 (B2) B      1 (B2) A    ->    2 (B1) B     
 -0.4021       3 (A1) A      3 (A1) B    ->    2 (B1) B     
  0.4021       3 (A1) B      3 (A1) A    ->    2 (B1) B     
  0.3907       1 (B1) A      3 (A1) B    ->    4 (A1) B     
 -0.3907       3 (A1) B      1 (B1) A    ->    4 (A1) B     
 -0.2859       3 (A1) A      1 (B1) A    ->    4 (A1) A     
  0.2859       1 (B1) A      3 (A1) A    ->    4 (A1) A     
  0.1746       1 (B1) A      1 (B1) B    ->    2 (B1) B     
 -0.1746       1 (B1) B      1 (B1) A    ->    2 (B1) B     
 -0.1239       2 (A1) A      3 (A1) B    ->    2 (B1) B     
  0.1239       3 (A1) B      2 (A1) A    ->    2 (B1) B     
  0.1048       3 (A1) A      1 (B1) B    ->    4 (A1) B     
 -0.1048       1 (B1) B      3 (A1) A    ->    4 (A1) B     
 -0.1032       3 (A1) A      2 (A1) B    ->    2 (B1) B     
  0.1032       2 (A1) B      3 (A1) A    ->    2 (B1) B     

              Summary of significant orbitals:

               Number  Type             Irrep      Energy
               2       Occ  Alpha       2 (A1)     -1.2437
               4       Occ  Alpha       3 (A1)     -0.4369
               3       Occ  Alpha       1 (B1)     -0.6040
               5       Occ  Alpha       1 (B2)     -0.3852
               2       Occ  Beta        2 (A1)     -1.2437
               4       Occ  Beta        3 (A1)     -0.4369
               3       Occ  Beta        1 (B1)     -0.6040
               5       Occ  Beta        1 (B2)     -0.3852
               6       Vir  Alpha       4 (A1)      0.5574
               6       Vir  Beta        4 (A1)      0.5574
               7       Vir  Beta        2 (B1)      0.7101


Running a double precision version
      EOMIP-CCSD/MP2 left amplitudes will be solved using Davidson.
        Amplitudes will be solved using MOM  algorithm.
     Hard-coded thresholds: 
     LinDepThresh=1.00e-15  NormThresh=1.00e-06  ReorthogonThresh=1.00e-02

      Roots     MaxVec    MaxIter   Precond   Conv      Shift    
      4         120       60        1         1.00e-05  0.00e+00  
 ------------------------------------------------------------------------------
      Iter ConvRoots NVecs ResNorm^2 Current eigenvalues (eV)
 ------------------------------------------------------------------------------
      0    3      4     8.58e-05   16.0020   28.4759*  30.3957*  31.3228*  
      1    3      5     9.58e-06   16.0020   28.4759*  30.3957*  31.3228*  
      2    4      6     1.93e-06   16.0020*  28.4759*  30.3957*  31.3228*  

     Davidson procedure converged

 EOMIP-CCSD transition 1/B1
S^2 calculation will be performed in  double precision
 EOMIP-CCSD transition 2/B1
S^2 calculation will be performed in  double precision
 EOMIP-CCSD transition 3/B1
S^2 calculation will be performed in  double precision
 EOMIP-CCSD transition 4/B1
S^2 calculation will be performed in  double precision
 Excited state properties for  EOMIP-CCSD transition 1/B1
 Dipole moment (a.u.): 1.131988 (X 0.000000, Y 0.000000, Z -1.131988)
 R-squared (a.u.): 14.188597 (XX 5.176370, YY 4.030259, ZZ 4.981969)
 Gauge origin (a.u.): (0.000000, 0.000000, 0.000000)
 Angular momentum (a.u.) against gauge origin: 
 (X 0.000000i, Y 0.000000i, Z 0.000000i)
 Traces of the OPDMs: Tr(AA) 4.000000, Tr(BB) 5.000000
 <S^2> = 0.750000

 Excited state properties for  EOMIP-CCSD transition 2/B1
 Dipole moment (a.u.): 0.066283 (X 0.000000, Y 0.000000, Z -0.066283)
 R-squared (a.u.): 17.300217 (XX 7.640446, YY 4.293253, ZZ 5.366518)
 Gauge origin (a.u.): (0.000000, 0.000000, 0.000000)
 Angular momentum (a.u.) against gauge origin: 
 (X 0.000000i, Y 0.000000i, Z 0.000000i)
 Traces of the OPDMs: Tr(AA) 4.000000, Tr(BB) 5.000000
 <S^2> = 3.750000

 Excited state properties for  EOMIP-CCSD transition 3/B1
 Dipole moment (a.u.): 0.128493 (X 0.000000, Y 0.000000, Z 0.128493)
 R-squared (a.u.): 18.189978 (XX 8.895121, YY 3.765374, ZZ 5.529483)
 Gauge origin (a.u.): (0.000000, 0.000000, 0.000000)
 Angular momentum (a.u.) against gauge origin: 
 (X 0.000000i, Y 0.000000i, Z 0.000000i)
 Traces of the OPDMs: Tr(AA) 4.000000, Tr(BB) 5.000000
 <S^2> = 0.750000

 Excited state properties for  EOMIP-CCSD transition 4/B1
 Dipole moment (a.u.): 0.087677 (X 0.000000, Y 0.000000, Z 0.087677)
 R-squared (a.u.): 18.354882 (XX 8.882136, YY 3.675598, ZZ 5.797147)
 Gauge origin (a.u.): (0.000000, 0.000000, 0.000000)
 Angular momentum (a.u.) against gauge origin: 
 (X 0.000000i, Y 0.000000i, Z 0.000000i)
 Traces of the OPDMs: Tr(AA) 4.000000, Tr(BB) 5.000000
 <S^2> = 0.750000

        Solving for EOMIP-CCSD B2 transitions.

Warning! Not enough singles to form guess subspace. Doubles guess vectors will be generated.
In case of poor EOM convergence, reduce requested IP_STATES.

Running a double precision version
      EOMIP-CCSD/MP2 right amplitudes will be solved using Davidson.
        Amplitudes will be solved using standard  algorithm.
     Hard-coded thresholds: 
     LinDepThresh=1.00e-15  NormThresh=1.00e-06  ReorthogonThresh=1.00e-02

      Roots     MaxVec    MaxIter   Precond   Conv      Shift    
      4         120       60        1         1.00e-05  0.00e+00  
 ------------------------------------------------------------------------------
      Iter ConvRoots NVecs ResNorm^2 Current eigenvalues (eV)
 ------------------------------------------------------------------------------
      0    0      4     3.37e-02   9.6071   25.7838   29.4411   31.8167   
      1    0      8     2.40e-03   7.9094   25.1693   28.3844   30.2310   
      2    4      10    4.90e-31   7.9093*  24.7788*  27.7672*  30.0473*  

     Davidson procedure converged

 EOMIP transition 1/B2
 Total energy = -74.70947504 a.u.  Excitation energy = 7.9093 eV.
 R1^2 = 0.9334  R2^2 = 0.0666  Res^2 = 3.42e-31
 Conv-d = yes

 Amplitude    Transitions between orbitals
  0.9661       1 (B2) A                  ->    infty        

              Summary of significant orbitals:

               Number  Type             Irrep      Energy
               5       Occ  Alpha       1 (B2)     -0.3852


 EOMIP transition 2/B2
 Total energy = -74.08953220 a.u.  Excitation energy = 24.7788 eV.
 R1^2 = 0.0000  R2^2 = 1.0000  Res^2 = 3.07e-31
 Conv-d = yes

 Amplitude    Transitions between orbitals
 -0.5284       3 (A1) A      1 (B2) A    ->    4 (A1) A     
  0.5284       1 (B2) A      3 (A1) A    ->    4 (A1) A     
 -0.5284       1 (B2) A      3 (A1) B    ->    4 (A1) B     
  0.5284       3 (A1) B      1 (B2) A    ->    4 (A1) B     
  0.5284       3 (A1) A      1 (B2) B    ->    4 (A1) B     
 -0.5284       1 (B2) B      3 (A1) A    ->    4 (A1) B     
 -0.2145       1 (B1) A      1 (B2) B    ->    2 (B1) B     
  0.2145       1 (B2) B      1 (B1) A    ->    2 (B1) B     
  0.2145       1 (B2) A      1 (B1) B    ->    2 (B1) B     
 -0.2145       1 (B1) B      1 (B2) A    ->    2 (B1) B     
  0.2145       1 (B1) A      1 (B2) A    ->    2 (B1) A     
 -0.2145       1 (B2) A      1 (B1) A    ->    2 (B1) A     

              Summary of significant orbitals:

               Number  Type             Irrep      Energy
               4       Occ  Alpha       3 (A1)     -0.4369
               3       Occ  Alpha       1 (B1)     -0.6040
               5       Occ  Alpha       1 (B2)     -0.3852
               4       Occ  Beta        3 (A1)     -0.4369
               3       Occ  Beta        1 (B1)     -0.6040
               5       Occ  Beta        1 (B2)     -0.3852
               6       Vir  Alpha       4 (A1)      0.5574
               7       Vir  Alpha       2 (B1)      0.7101
               6       Vir  Beta        4 (A1)      0.5574
               7       Vir  Beta        2 (B1)      0.7101


 EOMIP transition 3/B2
 Total energy = -73.97971100 a.u.  Excitation energy = 27.7672 eV.
 R1^2 = 0.0006  R2^2 = 0.9994  Res^2 = 1.11e-30
 Conv-d = yes

 Amplitude    Transitions between orbitals
 -0.7101       3 (A1) A      1 (B2) B    ->    4 (A1) B     
  0.7101       1 (B2) B      3 (A1) A    ->    4 (A1) B     
 -0.4098       3 (A1) A      1 (B2) A    ->    4 (A1) A     
  0.4098       1 (B2) A      3 (A1) A    ->    4 (A1) A     
  0.3655       1 (B1) A      1 (B2) B    ->    2 (B1) B     
 -0.3655       1 (B2) B      1 (B1) A    ->    2 (B1) B     
 -0.3003       1 (B2) A      3 (A1) B    ->    4 (A1) B     
  0.3003       3 (A1) B      1 (B2) A    ->    4 (A1) B     
  0.1830       1 (B2) A      1 (B1) B    ->    2 (B1) B     
 -0.1830       1 (B1) B      1 (B2) A    ->    2 (B1) B     
  0.1825       1 (B1) A      1 (B2) A    ->    2 (B1) A     
 -0.1825       1 (B2) A      1 (B1) A    ->    2 (B1) A     
 -0.1557       2 (A1) A      1 (B2) B    ->    4 (A1) B     
  0.1557       1 (B2) B      2 (A1) A    ->    4 (A1) B     

              Summary of significant orbitals:

               Number  Type             Irrep      Energy
               2       Occ  Alpha       2 (A1)     -1.2437
               4       Occ  Alpha       3 (A1)     -0.4369
               3       Occ  Alpha       1 (B1)     -0.6040
               5       Occ  Alpha       1 (B2)     -0.3852
               4       Occ  Beta        3 (A1)     -0.4369
               3       Occ  Beta        1 (B1)     -0.6040
               5       Occ  Beta        1 (B2)     -0.3852
               6       Vir  Alpha       4 (A1)      0.5574
               7       Vir  Alpha       2 (B1)      0.7101
               6       Vir  Beta        4 (A1)      0.5574
               7       Vir  Beta        2 (B1)      0.7101


 EOMIP transition 4/B2
 Total energy = -73.89591960 a.u.  Excitation energy = 30.0473 eV.
 R1^2 = 0.0000  R2^2 = 1.0000  Res^2 = 2.05e-31
 Conv-d = yes

 Amplitude    Transitions between orbitals
 -0.5267       1 (B1) A      1 (B2) B    ->    2 (B1) B     
  0.5267       1 (B2) B      1 (B1) A    ->    2 (B1) B     
  0.5267       1 (B2) A      1 (B1) B    ->    2 (B1) B     
 -0.5267       1 (B1) B      1 (B2) A    ->    2 (B1) B     
  0.5267       1 (B1) A      1 (B2) A    ->    2 (B1) A     
 -0.5267       1 (B2) A      1 (B1) A    ->    2 (B1) A     
  0.2269       1 (B2) A      3 (A1) B    ->    4 (A1) B     
 -0.2269       3 (A1) B      1 (B2) A    ->    4 (A1) B     
 -0.2269       3 (A1) A      1 (B2) B    ->    4 (A1) B     
  0.2269       1 (B2) B      3 (A1) A    ->    4 (A1) B     
  0.2269       3 (A1) A      1 (B2) A    ->    4 (A1) A     
 -0.2269       1 (B2) A      3 (A1) A    ->    4 (A1) A     

              Summary of significant orbitals:

               Number  Type             Irrep      Energy
               4       Occ  Alpha       3 (A1)     -0.4369
               3       Occ  Alpha       1 (B1)     -0.6040
               5       Occ  Alpha       1 (B2)     -0.3852
               4       Occ  Beta        3 (A1)     -0.4369
               3       Occ  Beta        1 (B1)     -0.6040
               5       Occ  Beta        1 (B2)     -0.3852
               6       Vir  Alpha       4 (A1)      0.5574
               7       Vir  Alpha       2 (B1)      0.7101
               6       Vir  Beta        4 (A1)      0.5574
               7       Vir  Beta        2 (B1)      0.7101


Running a double precision version
      EOMIP-CCSD/MP2 left amplitudes will be solved using Davidson.
        Amplitudes will be solved using MOM  algorithm.
     Hard-coded thresholds: 
     LinDepThresh=1.00e-15  NormThresh=1.00e-06  ReorthogonThresh=1.00e-02

      Roots     MaxVec    MaxIter   Precond   Conv      Shift    
      4         120       60        1         1.00e-05  0.00e+00  
 ------------------------------------------------------------------------------
      Iter ConvRoots NVecs ResNorm^2 Current eigenvalues (eV)
 ------------------------------------------------------------------------------
      0    3      4     4.30e-04   7.9093   24.7788*  27.7672*  30.0473*  
      1    3      5     1.47e-05   7.9093   24.7788*  27.7672*  30.0473*  
      2    4      6     7.18e-07   7.9093*  24.7788*  27.7672*  30.0473*  

     Davidson procedure converged

 EOMIP-CCSD transition 1/B2
S^2 calculation will be performed in  double precision
 EOMIP-CCSD transition 2/B2
S^2 calculation will be performed in  double precision
 EOMIP-CCSD transition 3/B2
S^2 calculation will be performed in  double precision
 EOMIP-CCSD transition 4/B2
S^2 calculation will be performed in  double precision
 Excited state properties for  EOMIP-CCSD transition 1/B2
 Dipole moment (a.u.): 0.926453 (X 0.000000, Y 0.000000, Z -0.926453)
 R-squared (a.u.): 14.860025 (XX 6.238840, YY 3.497426, ZZ 5.123759)
 Gauge origin (a.u.): (0.000000, 0.000000, 0.000000)
 Angular momentum (a.u.) against gauge origin: 
 (X 0.000000i, Y 0.000000i, Z 0.000000i)
 Traces of the OPDMs: Tr(AA) 4.000000, Tr(BB) 5.000000
 <S^2> = 0.750000
 Density matrix was written to a file for further analysis.

 Excited state properties for  EOMIP-CCSD transition 2/B2
 Dipole moment (a.u.): 0.235021 (X 0.000000, Y 0.000000, Z 0.235021)
 R-squared (a.u.): 18.724701 (XX 9.117129, YY 3.809824, ZZ 5.797748)
 Gauge origin (a.u.): (0.000000, 0.000000, 0.000000)
 Angular momentum (a.u.) against gauge origin: 
 (X 0.000000i, Y 0.000000i, Z 0.000000i)
 Traces of the OPDMs: Tr(AA) 4.000000, Tr(BB) 5.000000
 <S^2> = 3.750000

 Excited state properties for  EOMIP-CCSD transition 3/B2
 Dipole moment (a.u.): 0.144781 (X 0.000000, Y 0.000000, Z 0.144781)
 R-squared (a.u.): 18.613315 (XX 9.002844, YY 3.792558, ZZ 5.817913)
 Gauge origin (a.u.): (0.000000, 0.000000, 0.000000)
 Angular momentum (a.u.) against gauge origin: 
 (X 0.000000i, Y 0.000000i, Z 0.000000i)
 Traces of the OPDMs: Tr(AA) 4.000000, Tr(BB) 5.000000
 <S^2> = 0.750000

 Excited state properties for  EOMIP-CCSD transition 4/B2
 Dipole moment (a.u.): 0.087472 (X 0.000000, Y 0.000000, Z -0.087472)
 R-squared (a.u.): 17.843607 (XX 8.212610, YY 3.664254, ZZ 5.966743)
 Gauge origin (a.u.): (0.000000, 0.000000, 0.000000)
 Angular momentum (a.u.) against gauge origin: 
 (X 0.000000i, Y 0.000000i, Z 0.000000i)
 Traces of the OPDMs: Tr(AA) 4.000000, Tr(BB) 5.000000
 <S^2> = 3.750000

 EOMIP-MP2 calculation:   CPU 5.83 s  wall 5.72 s


 Start computing the transition properties

 ------------------------------------------------------------------------------
 The new SOC module will be executed 
 Authors: Pavel Pokhilko and Evgeny Epifanovsky 
 SOC 1e and mf integrals are evaluating by libqints...
 ------------------------------------------------------------------------------
 State A: eomip_mp2/a: 1/B2
 State B: eomip_mp2/a: 1/A1
 Energy GAP = 0.084576 a.u. = 2.301443 eV
 Transition dipole moment (a.u.):
   A->B: 0.176776 (X 0.000000, Y -0.176776, Z 0.000000)
   B->A: 0.178799 (X 0.000000, Y -0.178799, Z 0.000000)
 Oscillator strength (a.u.): 0.001782
 Transition angular momentum against gauge origin (a.u.):
   A->B:  (X -0.957729i, Y 0.000000i, Z 0.000000i)
   B->A:  (X 0.947402i, Y 0.000000i, Z 0.000000i)
 Norm of one-particle transition density matrix:
   A->B: 0.996354;   B->A: 0.995548
   ||gamma^AB||*||gamma^BA||: 0.991918

 ______________________________________________________________
 A(Ket)->B(Bra) transition SO matrices
Full 2e SOC is not implemented withing libqints. 
I will do mean-field SOC with libqints, which is usually as good as full 2e SOC
 Analysing Sz ans S^2 of the pair of states...
 Ket state:  Computed S^2 = 0.750000 will be treated as 0.750000 Sz = -0.500000
 Bra state:  Computed S^2 = 0.750000 will be treated as 0.750000 Sz = -0.500000
 Clebsh-Gordan coefficient: <0.500,-0.500;1.000,0.000|0.500,-0.500> = 0.577
 _________________________________________________
 One-electron SO (cm-1)
 Reduced matrix elements:
 <S|| Hso(L-) ||S'> = (-0.000000,89.006646)
 <S|| Hso(L0) ||S'> = (0.000000,0.000000)
 <S|| Hso(L+) ||S'> = (-0.000000,-89.006646)
 SOCC = 102.776022
 Actual matrix elements:
       |Sz=-0.50>           |Sz=0.50>
 <Sz=-0.50|(0.000000,0.000000)(0.000000,72.673622)
 <Sz=0.50|(-0.000000,72.673622)(-0.000000,-0.000000)
 _________________________________________________
 Mean-field SO (cm-1)
 Reduced matrix elements:
 <S|| Hso(L-) ||S'> = (-0.000000,55.136723)
 <S|| Hso(L0) ||S'> = (0.000000,0.000000)
 <S|| Hso(L+) ||S'> = (-0.000000,-55.136723)
 SOCC = 63.666404
 Actual matrix elements:
       |Sz=-0.50>           |Sz=0.50>
 <Sz=-0.50|(0.000000,0.000000)(0.000000,45.018946)
 <Sz=0.50|(-0.000000,45.018946)(-0.000000,-0.000000)
 Singlet part of <S|| Hso(L0) ||S'> = (-0.000000,-0.000000) (excluded from all matrix elements)
 L-/L+ Averaged reduced matrix elements:
 <S|| Hso(L-) ||S'> = (-0.000000,55.136723)
 <S|| Hso(L+) ||S'> = (-0.000000,-55.136723)
 ______________________________________________________________
 B(Ket)->A(Bra) transition SO matrices
Full 2e SOC is not implemented withing libqints. 
I will do mean-field SOC with libqints, which is usually as good as full 2e SOC
 Analysing Sz ans S^2 of the pair of states...
 Ket state:  Computed S^2 = 0.750000 will be treated as 0.750000 Sz = -0.500000
 Bra state:  Computed S^2 = 0.750000 will be treated as 0.750000 Sz = -0.500000
 Clebsh-Gordan coefficient: <0.500,-0.500;1.000,0.000|0.500,-0.500> = 0.577
 _________________________________________________
 One-electron SO (cm-1)
 Reduced matrix elements:
 <S|| Hso(L-) ||S'> = (0.000000,-88.068690)
 <S|| Hso(L0) ||S'> = (0.000000,-0.000000)
 <S|| Hso(L+) ||S'> = (0.000000,88.068690)
 SOCC = 101.692964
 Actual matrix elements:
       |Sz=-0.50>           |Sz=0.50>
 <Sz=-0.50|(0.000000,-0.000000)(-0.000000,-71.907784)
 <Sz=0.50|(0.000000,-71.907784)(0.000000,0.000000)
 _________________________________________________
 Mean-field SO (cm-1)
 Reduced matrix elements:
 <S|| Hso(L-) ||S'> = (0.000000,-54.535132)
 <S|| Hso(L0) ||S'> = (0.000000,-0.000000)
 <S|| Hso(L+) ||S'> = (0.000000,54.535132)
 SOCC = 62.971746
 Actual matrix elements:
       |Sz=-0.50>           |Sz=0.50>
 <Sz=-0.50|(0.000000,-0.000000)(-0.000000,-44.527749)
 <Sz=0.50|(0.000000,-44.527749)(0.000000,0.000000)
 Singlet part of <S|| Hso(L0) ||S'> = (-0.000000,-0.000000) (excluded from all matrix elements)
 L-/L+ Averaged reduced matrix elements:
 <S|| Hso(L-) ||S'> = (0.000000,-54.535132)
 <S|| Hso(L+) ||S'> = (0.000000,54.535132)
 ______________________________________________________________
   Arithmetically averaged transition SO matrices
   (The phases shown, Ket and Bra assingment are from A(Ket)->B(Bra))
 _________________________________________________
 One-electron SO (cm-1)
 SOCC = 102.234493
 Actual matrix elements:
       |Sz=-0.50>           |Sz=0.50>
 <Sz=-0.50|(0.000000,0.000000)(0.000000,72.290703)
 <Sz=0.50|(-0.000000,72.290703)(-0.000000,-0.000000)
 _________________________________________________
 Mean-field SO (cm-1)
 SOCC = 63.319075
 Actual matrix elements:
       |Sz=-0.50>           |Sz=0.50>
 <Sz=-0.50|(0.000000,0.000000)(0.000000,44.773347)
 <Sz=0.50|(-0.000000,44.773347)(-0.000000,-0.000000)
 ______________________________________________________________

 ------------------------------------------------------------------------------
 State A: eomip_mp2/a: 1/B2
 State B: eomip_mp2/a: 2/A1
 Energy GAP = 0.749912 a.u. = 20.406155 eV
 Transition dipole moment (a.u.):
   A->B: 0.240224 (X 0.000000, Y 0.240224, Z 0.000000)
   B->A: 0.246108 (X 0.000000, Y 0.246108, Z 0.000000)
 Oscillator strength (a.u.): 0.029557
 Transition angular momentum against gauge origin (a.u.):
   A->B:  (X -0.211286i, Y 0.000000i, Z 0.000000i)
   B->A:  (X 0.222416i, Y 0.000000i, Z 0.000000i)
 Norm of one-particle transition density matrix:
   A->B: 0.855207;   B->A: 0.849650
   ||gamma^AB||*||gamma^BA||: 0.726626

 ______________________________________________________________
 A(Ket)->B(Bra) transition SO matrices
Full 2e SOC is not implemented withing libqints. 
I will do mean-field SOC with libqints, which is usually as good as full 2e SOC
 Analysing Sz ans S^2 of the pair of states...
 Ket state:  Computed S^2 = 0.750000 will be treated as 0.750000 Sz = -0.500000
 Bra state:  Computed S^2 = 0.750000 will be treated as 0.750000 Sz = -0.500000
 Clebsh-Gordan coefficient: <0.500,-0.500;1.000,0.000|0.500,-0.500> = 0.577
 _________________________________________________
 One-electron SO (cm-1)
 Reduced matrix elements:
 <S|| Hso(L-) ||S'> = (0.000000,-28.580387)
 <S|| Hso(L0) ||S'> = (0.000000,0.000000)
 <S|| Hso(L+) ||S'> = (0.000000,28.580387)
 SOCC = 33.001789
 Actual matrix elements:
       |Sz=-0.50>           |Sz=0.50>
 <Sz=-0.50|(0.000000,0.000000)(-0.000000,-23.335789)
 <Sz=0.50|(0.000000,-23.335789)(0.000000,-0.000000)
 _________________________________________________
 Mean-field SO (cm-1)
 Reduced matrix elements:
 <S|| Hso(L-) ||S'> = (0.000000,-18.820240)
 <S|| Hso(L0) ||S'> = (0.000000,0.000000)
 <S|| Hso(L+) ||S'> = (0.000000,18.820240)
 SOCC = 21.731741
 Actual matrix elements:
       |Sz=-0.50>           |Sz=0.50>
 <Sz=-0.50|(0.000000,0.000000)(-0.000000,-15.366662)
 <Sz=0.50|(0.000000,-15.366662)(0.000000,-0.000000)
 Singlet part of <S|| Hso(L0) ||S'> = (-0.000000,-0.000000) (excluded from all matrix elements)
 L-/L+ Averaged reduced matrix elements:
 <S|| Hso(L-) ||S'> = (0.000000,-18.820240)
 <S|| Hso(L+) ||S'> = (0.000000,18.820240)
 ______________________________________________________________
 B(Ket)->A(Bra) transition SO matrices
Full 2e SOC is not implemented withing libqints. 
I will do mean-field SOC with libqints, which is usually as good as full 2e SOC
 Analysing Sz ans S^2 of the pair of states...
 Ket state:  Computed S^2 = 0.750000 will be treated as 0.750000 Sz = -0.500000
 Bra state:  Computed S^2 = 0.750000 will be treated as 0.750000 Sz = -0.500000
 Clebsh-Gordan coefficient: <0.500,-0.500;1.000,0.000|0.500,-0.500> = 0.577
 _________________________________________________
 One-electron SO (cm-1)
 Reduced matrix elements:
 <S|| Hso(L-) ||S'> = (-0.000000,27.772630)
 <S|| Hso(L0) ||S'> = (0.000000,-0.000000)
 <S|| Hso(L+) ||S'> = (-0.000000,-27.772630)
 SOCC = 32.069071
 Actual matrix elements:
       |Sz=-0.50>           |Sz=0.50>
 <Sz=-0.50|(0.000000,-0.000000)(0.000000,22.676257)
 <Sz=0.50|(-0.000000,22.676257)(-0.000000,0.000000)
 _________________________________________________
 Mean-field SO (cm-1)
 Reduced matrix elements:
 <S|| Hso(L-) ||S'> = (-0.000000,18.283661)
 <S|| Hso(L0) ||S'> = (0.000000,-0.000000)
 <S|| Hso(L+) ||S'> = (-0.000000,-18.283661)
 SOCC = 21.112153
 Actual matrix elements:
       |Sz=-0.50>           |Sz=0.50>
 <Sz=-0.50|(0.000000,-0.000000)(0.000000,14.928547)
 <Sz=0.50|(-0.000000,14.928547)(-0.000000,0.000000)
 Singlet part of <S|| Hso(L0) ||S'> = (-0.000000,-0.000000) (excluded from all matrix elements)
 L-/L+ Averaged reduced matrix elements:
 <S|| Hso(L-) ||S'> = (-0.000000,18.283661)
 <S|| Hso(L+) ||S'> = (-0.000000,-18.283661)
 ______________________________________________________________
   Arithmetically averaged transition SO matrices
   (The phases shown, Ket and Bra assingment are from A(Ket)->B(Bra))
 _________________________________________________
 One-electron SO (cm-1)
 SOCC = 32.535430
 Actual matrix elements:
       |Sz=-0.50>           |Sz=0.50>
 <Sz=-0.50|(0.000000,0.000000)(-0.000000,-23.006023)
 <Sz=0.50|(0.000000,-23.006023)(0.000000,-0.000000)
 _________________________________________________
 Mean-field SO (cm-1)
 SOCC = 21.421947
 Actual matrix elements:
       |Sz=-0.50>           |Sz=0.50>
 <Sz=-0.50|(0.000000,0.000000)(-0.000000,-15.147604)
 <Sz=0.50|(0.000000,-15.147604)(0.000000,-0.000000)
 ______________________________________________________________

 ------------------------------------------------------------------------------
 State A: eomip_mp2/a: 1/B2
 State B: eomip_mp2/a: 3/A1
 Energy GAP = 0.809107 a.u. = 22.016935 eV
 Transition dipole moment (a.u.):
   A->B: 0.000001 (X 0.000000, Y 0.000000, Z 0.000000)
   B->A: 0.000014 (X 0.000000, Y 0.000014, Z 0.000000)
 Oscillator strength (a.u.): -0.000000
 Transition angular momentum against gauge origin (a.u.):
   A->B:  (X 0.000001i, Y 0.000000i, Z 0.000000i)
   B->A:  (X 0.000001i, Y 0.000000i, Z 0.000000i)
 Norm of one-particle transition density matrix:
   A->B: 0.029670;   B->A: 0.032248
   ||gamma^AB||*||gamma^BA||: 0.000957

 ______________________________________________________________
 A(Ket)->B(Bra) transition SO matrices
Full 2e SOC is not implemented withing libqints. 
I will do mean-field SOC with libqints, which is usually as good as full 2e SOC
 Analysing Sz ans S^2 of the pair of states...
 Ket state:  Computed S^2 = 0.750000 will be treated as 0.750000 Sz = -0.500000
 Bra state:  Computed S^2 = 3.750000 will be treated as 3.750000 Sz = -0.500000
 Clebsh-Gordan coefficient: <0.500,-0.500;1.000,0.000|1.500,-0.500> = 0.816
 _________________________________________________
 One-electron SO (cm-1)
 Reduced matrix elements:
 <S|| Hso(L-) ||S'> = (0.000000,-2.429037)
 <S|| Hso(L0) ||S'> = (0.000000,-0.000000)
 <S|| Hso(L+) ||S'> = (0.000000,2.429037)
 SOCC = 3.966601
 Actual matrix elements:
       |Sz=-0.50>           |Sz=0.50>
 <Sz=-1.50|(0.000000,2.429037)(0.000000,0.000000)
 <Sz=-0.50|(-0.000000,-0.000000)(0.000000,1.402405)
 <Sz=0.50|(0.000000,-1.402405)(0.000000,-0.000000)
 <Sz=1.50|(0.000000,0.000000)(0.000000,-2.429037)
 _________________________________________________
 Mean-field SO (cm-1)
 Reduced matrix elements:
 <S|| Hso(L-) ||S'> = (0.000000,-1.500170)
 <S|| Hso(L0) ||S'> = (0.000000,-0.000000)
 <S|| Hso(L+) ||S'> = (0.000000,1.500170)
 SOCC = 2.449768
 Actual matrix elements:
       |Sz=-0.50>           |Sz=0.50>
 <Sz=-1.50|(0.000000,1.500170)(0.000000,0.000000)
 <Sz=-0.50|(-0.000000,-0.000000)(0.000000,0.866124)
 <Sz=0.50|(0.000000,-0.866124)(0.000000,-0.000000)
 <Sz=1.50|(0.000000,0.000000)(0.000000,-1.500170)
 Singlet part of <S|| Hso(L0) ||S'> = (-0.000000,-0.000000) (excluded from all matrix elements)
 L-/L+ Averaged reduced matrix elements:
 <S|| Hso(L-) ||S'> = (0.000000,-1.500170)
 <S|| Hso(L+) ||S'> = (0.000000,1.500170)
 ______________________________________________________________
 B(Ket)->A(Bra) transition SO matrices
Full 2e SOC is not implemented withing libqints. 
I will do mean-field SOC with libqints, which is usually as good as full 2e SOC
 Analysing Sz ans S^2 of the pair of states...
 Ket state:  Computed S^2 = 3.750000 will be treated as 3.750000 Sz = -0.500000
 Bra state:  Computed S^2 = 0.750000 will be treated as 0.750000 Sz = -0.500000
 Clebsh-Gordan coefficient: <1.500,-0.500;1.000,0.000|0.500,-0.500> = -0.577
 _________________________________________________
 One-electron SO (cm-1)
 Reduced matrix elements:
 <S|| Hso(L-) ||S'> = (0.000000,-3.725679)
 <S|| Hso(L0) ||S'> = (0.000000,-0.000000)
 <S|| Hso(L+) ||S'> = (0.000000,3.725679)
 SOCC = 4.302043
 Actual matrix elements:
       |Sz=-1.50>           |Sz=-0.50>           |Sz=0.50>           |Sz=1.50>
 <Sz=-0.50|(0.000000,-2.634453)(-0.000000,0.000000)(0.000000,1.521002)(0.000000,0.000000)
 <Sz=0.50|(0.000000,0.000000)(0.000000,-1.521002)(0.000000,0.000000)(0.000000,2.634453)
 _________________________________________________
 Mean-field SO (cm-1)
 Reduced matrix elements:
 <S|| Hso(L-) ||S'> = (0.000000,-2.301118)
 <S|| Hso(L0) ||S'> = (0.000000,-0.000000)
 <S|| Hso(L+) ||S'> = (0.000000,2.301118)
 SOCC = 2.657102
 Actual matrix elements:
       |Sz=-1.50>           |Sz=-0.50>           |Sz=0.50>           |Sz=1.50>
 <Sz=-0.50|(0.000000,-1.627136)(-0.000000,0.000000)(0.000000,0.939427)(0.000000,0.000000)
 <Sz=0.50|(0.000000,0.000000)(0.000000,-0.939427)(0.000000,0.000000)(0.000000,1.627136)
 Singlet part of <S|| Hso(L0) ||S'> = (-0.000000,-0.000000) (excluded from all matrix elements)
 L-/L+ Averaged reduced matrix elements:
 <S|| Hso(L-) ||S'> = (0.000000,-2.301118)
 <S|| Hso(L+) ||S'> = (0.000000,2.301118)
 ______________________________________________________________
   Arithmetically averaged transition SO matrices
   (The phases shown, Ket and Bra assingment are from A(Ket)->B(Bra))
 _________________________________________________
 One-electron SO (cm-1)
 SOCC = 4.134322
 Actual matrix elements:
       |Sz=-0.50>           |Sz=0.50>
 <Sz=-1.50|(0.000000,2.531745)(0.000000,0.000000)
 <Sz=-0.50|(-0.000000,-0.000000)(0.000000,1.461704)
 <Sz=0.50|(0.000000,-1.461704)(0.000000,-0.000000)
 <Sz=1.50|(0.000000,-0.000000)(0.000000,-2.531745)
 _________________________________________________
 Mean-field SO (cm-1)
 SOCC = 2.553435
 Actual matrix elements:
       |Sz=-0.50>           |Sz=0.50>
 <Sz=-1.50|(0.000000,1.563653)(0.000000,0.000000)
 <Sz=-0.50|(-0.000000,-0.000000)(0.000000,0.902776)
 <Sz=0.50|(0.000000,-0.902776)(0.000000,-0.000000)
 <Sz=1.50|(0.000000,-0.000000)(0.000000,-1.563653)
 ______________________________________________________________

 ------------------------------------------------------------------------------
 State A: eomip_mp2/a: 1/B2
 State B: eomip_mp2/a: 4/A1
 Energy GAP = 0.815220 a.u. = 22.183274 eV
 Transition dipole moment (a.u.):
   A->B: 0.046186 (X 0.000000, Y 0.046186, Z 0.000000)
   B->A: 0.053749 (X 0.000000, Y 0.053749, Z 0.000000)
 Oscillator strength (a.u.): 0.001349
 Transition angular momentum against gauge origin (a.u.):
   A->B:  (X -0.120434i, Y 0.000000i, Z 0.000000i)
   B->A:  (X 0.107878i, Y 0.000000i, Z 0.000000i)
 Norm of one-particle transition density matrix:
   A->B: 0.462751;   B->A: 0.437957
   ||gamma^AB||*||gamma^BA||: 0.202665

 ______________________________________________________________
 A(Ket)->B(Bra) transition SO matrices
Full 2e SOC is not implemented withing libqints. 
I will do mean-field SOC with libqints, which is usually as good as full 2e SOC
 Analysing Sz ans S^2 of the pair of states...
 Ket state:  Computed S^2 = 0.750000 will be treated as 0.750000 Sz = -0.500000
 Bra state:  Computed S^2 = 0.750000 will be treated as 0.750000 Sz = -0.500000
 Clebsh-Gordan coefficient: <0.500,-0.500;1.000,0.000|0.500,-0.500> = 0.577
 _________________________________________________
 One-electron SO (cm-1)
 Reduced matrix elements:
 <S|| Hso(L-) ||S'> = (0.000000,-24.770200)
 <S|| Hso(L0) ||S'> = (0.000000,0.000000)
 <S|| Hso(L+) ||S'> = (0.000000,24.770200)
 SOCC = 28.602163
 Actual matrix elements:
       |Sz=-0.50>           |Sz=0.50>
 <Sz=-0.50|(0.000000,0.000000)(-0.000000,-20.224783)
 <Sz=0.50|(0.000000,-20.224783)(0.000000,-0.000000)
 _________________________________________________
 Mean-field SO (cm-1)
 Reduced matrix elements:
 <S|| Hso(L-) ||S'> = (0.000000,-15.982281)
 <S|| Hso(L0) ||S'> = (0.000000,0.000000)
 <S|| Hso(L+) ||S'> = (0.000000,15.982281)
 SOCC = 18.454749
 Actual matrix elements:
       |Sz=-0.50>           |Sz=0.50>
 <Sz=-0.50|(0.000000,0.000000)(-0.000000,-13.049478)
 <Sz=0.50|(0.000000,-13.049478)(0.000000,-0.000000)
 Singlet part of <S|| Hso(L0) ||S'> = (-0.000000,-0.000000) (excluded from all matrix elements)
 L-/L+ Averaged reduced matrix elements:
 <S|| Hso(L-) ||S'> = (0.000000,-15.982281)
 <S|| Hso(L+) ||S'> = (0.000000,15.982281)
 ______________________________________________________________
 B(Ket)->A(Bra) transition SO matrices
Full 2e SOC is not implemented withing libqints. 
I will do mean-field SOC with libqints, which is usually as good as full 2e SOC
 Analysing Sz ans S^2 of the pair of states...
 Ket state:  Computed S^2 = 0.750000 will be treated as 0.750000 Sz = -0.500000
 Bra state:  Computed S^2 = 0.750000 will be treated as 0.750000 Sz = -0.500000
 Clebsh-Gordan coefficient: <0.500,-0.500;1.000,0.000|0.500,-0.500> = 0.577
 _________________________________________________
 One-electron SO (cm-1)
 Reduced matrix elements:
 <S|| Hso(L-) ||S'> = (-0.000000,26.221324)
 <S|| Hso(L0) ||S'> = (0.000000,-0.000000)
 <S|| Hso(L+) ||S'> = (-0.000000,-26.221324)
 SOCC = 30.277777
 Actual matrix elements:
       |Sz=-0.50>           |Sz=0.50>
 <Sz=-0.50|(0.000000,-0.000000)(0.000000,21.409621)
 <Sz=0.50|(-0.000000,21.409621)(-0.000000,0.000000)
 _________________________________________________
 Mean-field SO (cm-1)
 Reduced matrix elements:
 <S|| Hso(L-) ||S'> = (-0.000000,16.872734)
 <S|| Hso(L0) ||S'> = (0.000000,-0.000000)
 <S|| Hso(L+) ||S'> = (-0.000000,-16.872734)
 SOCC = 19.482955
 Actual matrix elements:
       |Sz=-0.50>           |Sz=0.50>
 <Sz=-0.50|(0.000000,-0.000000)(0.000000,13.776530)
 <Sz=0.50|(-0.000000,13.776530)(-0.000000,0.000000)
 Singlet part of <S|| Hso(L0) ||S'> = (-0.000000,-0.000000) (excluded from all matrix elements)
 L-/L+ Averaged reduced matrix elements:
 <S|| Hso(L-) ||S'> = (-0.000000,16.872734)
 <S|| Hso(L+) ||S'> = (-0.000000,-16.872734)
 ______________________________________________________________
   Arithmetically averaged transition SO matrices
   (The phases shown, Ket and Bra assingment are from A(Ket)->B(Bra))
 _________________________________________________
 One-electron SO (cm-1)
 SOCC = 29.439970
 Actual matrix elements:
       |Sz=-0.50>           |Sz=0.50>
 <Sz=-0.50|(0.000000,0.000000)(-0.000000,-20.817202)
 <Sz=0.50|(0.000000,-20.817202)(-0.000000,-0.000000)
 _________________________________________________
 Mean-field SO (cm-1)
 SOCC = 18.968852
 Actual matrix elements:
       |Sz=-0.50>           |Sz=0.50>
 <Sz=-0.50|(0.000000,0.000000)(-0.000000,-13.413004)
 <Sz=0.50|(0.000000,-13.413004)(-0.000000,-0.000000)
 ______________________________________________________________

 ------------------------------------------------------------------------------
 State A: eomip_mp2/a: 1/B2
 State B: eomip_mp2/a: 1/A2
 Energy GAP = 0.657610 a.u. = 17.894485 eV
 Transition dipole moment (a.u.):
   A->B: 0.000031 (X 0.000031, Y 0.000000, Z 0.000000)
   B->A: 0.000000 (X 0.000000, Y 0.000000, Z 0.000000)
 Oscillator strength (a.u.): -0.000000
 Transition angular momentum against gauge origin (a.u.):
   A->B:  (X 0.000000i, Y -0.000007i, Z 0.000000i)
   B->A:  (X 0.000000i, Y 0.000000i, Z 0.000000i)
 Norm of one-particle transition density matrix:
   A->B: 0.799112;   B->A: 0.803861
   ||gamma^AB||*||gamma^BA||: 0.642375

 ______________________________________________________________
 A(Ket)->B(Bra) transition SO matrices
Full 2e SOC is not implemented withing libqints. 
I will do mean-field SOC with libqints, which is usually as good as full 2e SOC
 Analysing Sz ans S^2 of the pair of states...
 Ket state:  Computed S^2 = 0.750000 will be treated as 0.750000 Sz = -0.500000
 Bra state:  Computed S^2 = 3.750000 will be treated as 3.750000 Sz = -0.500000
 Clebsh-Gordan coefficient: <0.500,-0.500;1.000,0.000|1.500,-0.500> = 0.816
 _________________________________________________
 One-electron SO (cm-1)
 Reduced matrix elements:
 <S|| Hso(L-) ||S'> = (-18.925553,0.000000)
 <S|| Hso(L0) ||S'> = (0.000000,-0.000000)
 <S|| Hso(L+) ||S'> = (-18.925553,-0.000000)
 SOCC = 30.905298
 Actual matrix elements:
       |Sz=-0.50>           |Sz=0.50>
 <Sz=-1.50|(-18.925553,-0.000000)(0.000000,0.000000)
 <Sz=-0.50|(0.000000,-0.000000)(-10.926673,-0.000000)
 <Sz=0.50|(-10.926673,0.000000)(-0.000000,-0.000000)
 <Sz=1.50|(0.000000,0.000000)(-18.925553,0.000000)
 _________________________________________________
 Mean-field SO (cm-1)
 Reduced matrix elements:
 <S|| Hso(L-) ||S'> = (-11.793134,0.000000)
 <S|| Hso(L0) ||S'> = (0.000000,-0.000000)
 <S|| Hso(L+) ||S'> = (-11.793134,-0.000000)
 SOCC = 19.258107
 Actual matrix elements:
       |Sz=-0.50>           |Sz=0.50>
 <Sz=-1.50|(-11.793134,-0.000000)(0.000000,0.000000)
 <Sz=-0.50|(0.000000,-0.000000)(-6.808769,-0.000000)
 <Sz=0.50|(-6.808769,0.000000)(-0.000000,-0.000000)
 <Sz=1.50|(0.000000,0.000000)(-11.793134,0.000000)
 Singlet part of <S|| Hso(L0) ||S'> = (-0.000000,-0.000000) (excluded from all matrix elements)
 L-/L+ Averaged reduced matrix elements:
 <S|| Hso(L-) ||S'> = (-11.793134,0.000000)
 <S|| Hso(L+) ||S'> = (-11.793134,-0.000000)
 ______________________________________________________________
 B(Ket)->A(Bra) transition SO matrices
Full 2e SOC is not implemented withing libqints. 
I will do mean-field SOC with libqints, which is usually as good as full 2e SOC
 Analysing Sz ans S^2 of the pair of states...
 Ket state:  Computed S^2 = 3.750000 will be treated as 3.750000 Sz = -0.500000
 Bra state:  Computed S^2 = 0.750000 will be treated as 0.750000 Sz = -0.500000
 Clebsh-Gordan coefficient: <1.500,-0.500;1.000,0.000|0.500,-0.500> = -0.577
 _________________________________________________
 One-electron SO (cm-1)
 Reduced matrix elements:
 <S|| Hso(L-) ||S'> = (-25.733729,0.000000)
 <S|| Hso(L0) ||S'> = (0.000000,-0.000000)
 <S|| Hso(L+) ||S'> = (-25.733729,-0.000000)
 SOCC = 29.714751
 Actual matrix elements:
       |Sz=-1.50>           |Sz=-0.50>           |Sz=0.50>           |Sz=1.50>
 <Sz=-0.50|(-18.196494,0.000000)(0.000000,0.000000)(-10.505751,-0.000000)(-0.000000,-0.000000)
 <Sz=0.50|(0.000000,0.000000)(-10.505751,0.000000)(0.000000,0.000000)(-18.196494,-0.000000)
 _________________________________________________
 Mean-field SO (cm-1)
 Reduced matrix elements:
 <S|| Hso(L-) ||S'> = (-16.027981,0.000000)
 <S|| Hso(L0) ||S'> = (0.000000,-0.000000)
 <S|| Hso(L+) ||S'> = (-16.027981,-0.000000)
 SOCC = 18.507518
 Actual matrix elements:
       |Sz=-1.50>           |Sz=-0.50>           |Sz=0.50>           |Sz=1.50>
 <Sz=-0.50|(-11.333494,0.000000)(0.000000,0.000000)(-6.543396,-0.000000)(-0.000000,-0.000000)
 <Sz=0.50|(0.000000,0.000000)(-6.543396,0.000000)(0.000000,0.000000)(-11.333494,-0.000000)
 Singlet part of <S|| Hso(L0) ||S'> = (-0.000000,-0.000000) (excluded from all matrix elements)
 L-/L+ Averaged reduced matrix elements:
 <S|| Hso(L-) ||S'> = (-16.027981,0.000000)
 <S|| Hso(L+) ||S'> = (-16.027981,-0.000000)
 ______________________________________________________________
   Arithmetically averaged transition SO matrices
   (The phases shown, Ket and Bra assingment are from A(Ket)->B(Bra))
 _________________________________________________
 One-electron SO (cm-1)
 SOCC = 30.310025
 Actual matrix elements:
       |Sz=-0.50>           |Sz=0.50>
 <Sz=-1.50|(-18.561024,-0.000000)(0.000000,0.000000)
 <Sz=-0.50|(0.000000,-0.000000)(-10.716212,-0.000000)
 <Sz=0.50|(-10.716212,0.000000)(-0.000000,-0.000000)
 <Sz=1.50|(-0.000000,0.000000)(-18.561024,0.000000)
 _________________________________________________
 Mean-field SO (cm-1)
 SOCC = 18.882812
 Actual matrix elements:
       |Sz=-0.50>           |Sz=0.50>
 <Sz=-1.50|(-11.563314,-0.000000)(0.000000,0.000000)
 <Sz=-0.50|(0.000000,-0.000000)(-6.676082,-0.000000)
 <Sz=0.50|(-6.676082,0.000000)(-0.000000,-0.000000)
 <Sz=1.50|(-0.000000,0.000000)(-11.563314,0.000000)
 ______________________________________________________________

 ------------------------------------------------------------------------------
 State A: eomip_mp2/a: 1/B2
 State B: eomip_mp2/a: 2/A2
 Energy GAP = 0.755054 a.u. = 20.546078 eV
 Transition dipole moment (a.u.):
   A->B: 0.017562 (X -0.017562, Y 0.000000, Z 0.000000)
   B->A: 0.020229 (X -0.020229, Y 0.000000, Z 0.000000)
 Oscillator strength (a.u.): 0.000179
 Transition angular momentum against gauge origin (a.u.):
   A->B:  (X 0.000000i, Y 0.084357i, Z 0.000000i)
   B->A:  (X 0.000000i, Y -0.090204i, Z 0.000000i)
 Norm of one-particle transition density matrix:
   A->B: 0.575296;   B->A: 0.579058
   ||gamma^AB||*||gamma^BA||: 0.333130

 ______________________________________________________________
 A(Ket)->B(Bra) transition SO matrices
Full 2e SOC is not implemented withing libqints. 
I will do mean-field SOC with libqints, which is usually as good as full 2e SOC
 Analysing Sz ans S^2 of the pair of states...
 Ket state:  Computed S^2 = 0.750000 will be treated as 0.750000 Sz = -0.500000
 Bra state:  Computed S^2 = 0.750000 will be treated as 0.750000 Sz = -0.500000
 Clebsh-Gordan coefficient: <0.500,-0.500;1.000,0.000|0.500,-0.500> = 0.577
 _________________________________________________
 One-electron SO (cm-1)
 Reduced matrix elements:
 <S|| Hso(L-) ||S'> = (-16.983525,0.000000)
 <S|| Hso(L0) ||S'> = (0.000000,-0.000000)
 <S|| Hso(L+) ||S'> = (-16.983525,-0.000000)
 SOCC = 19.610885
 Actual matrix elements:
       |Sz=-0.50>           |Sz=0.50>
 <Sz=-0.50|(0.000000,-0.000000)(13.866990,0.000000)
 <Sz=0.50|(-13.866990,0.000000)(-0.000000,0.000000)
 _________________________________________________
 Mean-field SO (cm-1)
 Reduced matrix elements:
 <S|| Hso(L-) ||S'> = (-10.546133,0.000000)
 <S|| Hso(L0) ||S'> = (0.000000,-0.000000)
 <S|| Hso(L+) ||S'> = (-10.546133,-0.000000)
 SOCC = 12.177626
 Actual matrix elements:
       |Sz=-0.50>           |Sz=0.50>
 <Sz=-0.50|(0.000000,-0.000000)(8.610882,0.000000)
 <Sz=0.50|(-8.610882,0.000000)(-0.000000,0.000000)
 Singlet part of <S|| Hso(L0) ||S'> = (-0.000000,-0.000000) (excluded from all matrix elements)
 L-/L+ Averaged reduced matrix elements:
 <S|| Hso(L-) ||S'> = (-10.546133,0.000000)
 <S|| Hso(L+) ||S'> = (-10.546133,-0.000000)
 ______________________________________________________________
 B(Ket)->A(Bra) transition SO matrices
Full 2e SOC is not implemented withing libqints. 
I will do mean-field SOC with libqints, which is usually as good as full 2e SOC
 Analysing Sz ans S^2 of the pair of states...
[...]
 Clebsh-Gordan coefficient: <0.500,-0.500;1.000,0.000|0.500,-0.500> = 0.577
 _________________________________________________
 One-electron SO (cm-1)
 Reduced matrix elements:
 <S|| Hso(L-) ||S'> = (0.000000,-0.000000)
 <S|| Hso(L0) ||S'> = (0.000000,-81.141345)
 <S|| Hso(L+) ||S'> = (0.000000,0.000000)
 SOCC = 66.251631
 Actual matrix elements:
       |Sz=-0.50>           |Sz=0.50>
 <Sz=-0.50|(0.000000,-46.846978)(-0.000000,-0.000000)
 <Sz=0.50|(0.000000,-0.000000)(0.000000,46.846978)
 _________________________________________________
 Mean-field SO (cm-1)
 Reduced matrix elements:
 <S|| Hso(L-) ||S'> = (0.000000,-0.000000)
 <S|| Hso(L0) ||S'> = (0.000000,-51.406893)
 <S|| Hso(L+) ||S'> = (0.000000,0.000000)
 SOCC = 41.973553
 Actual matrix elements:
       |Sz=-0.50>           |Sz=0.50>
 <Sz=-0.50|(0.000000,-29.679784)(-0.000000,-0.000000)
 <Sz=0.50|(0.000000,-0.000000)(0.000000,29.679784)
 Singlet part of <S|| Hso(L0) ||S'> = (-0.000000,-0.000000) (excluded from all matrix elements)
 L-/L+ Averaged reduced matrix elements:
 <S|| Hso(L-) ||S'> = (0.000000,-0.000000)
 <S|| Hso(L+) ||S'> = (0.000000,0.000000)
 ______________________________________________________________
   Arithmetically averaged transition SO matrices
   (The phases shown, Ket and Bra assingment are from A(Ket)->B(Bra))
 _________________________________________________
 One-electron SO (cm-1)
 SOCC = 63.911643
 Actual matrix elements:
       |Sz=-0.50>           |Sz=0.50>
 <Sz=-0.50|(0.000000,45.192356)(0.000000,0.000000)
 <Sz=0.50|(-0.000000,0.000000)(0.000000,-45.192356)
 _________________________________________________
 Mean-field SO (cm-1)
 SOCC = 40.538236
 Actual matrix elements:
       |Sz=-0.50>           |Sz=0.50>
 <Sz=-0.50|(0.000000,28.664862)(0.000000,0.000000)
 <Sz=0.50|(-0.000000,0.000000)(0.000000,-28.664862)
 ______________________________________________________________

 ------------------------------------------------------------------------------
 State A: eomip_mp2/a: 1/B2
 State B: eomip_mp2/a: 2/B2
 Energy GAP = 0.619943 a.u. = 16.869513 eV
 Transition dipole moment (a.u.):
   A->B: 0.000032 (X 0.000000, Y 0.000000, Z 0.000032)
   B->A: 0.000003 (X 0.000000, Y 0.000000, Z -0.000003)
 Oscillator strength (a.u.): -0.000000
 Transition angular momentum against gauge origin (a.u.):
   A->B:  (X 0.000000i, Y 0.000000i, Z 0.000000i)
   B->A:  (X 0.000000i, Y 0.000000i, Z 0.000000i)
 Norm of one-particle transition density matrix:
   A->B: 0.799130;   B->A: 0.803966
   ||gamma^AB||*||gamma^BA||: 0.642473

 ______________________________________________________________
 A(Ket)->B(Bra) transition SO matrices
Full 2e SOC is not implemented withing libqints. 
I will do mean-field SOC with libqints, which is usually as good as full 2e SOC
 Analysing Sz ans S^2 of the pair of states...
 Ket state:  Computed S^2 = 0.750000 will be treated as 0.750000 Sz = -0.500000
 Bra state:  Computed S^2 = 3.750000 will be treated as 3.750000 Sz = -0.500000
 Clebsh-Gordan coefficient: <0.500,-0.500;1.000,0.000|1.500,-0.500> = 0.816
 _________________________________________________
 One-electron SO (cm-1)
 Reduced matrix elements:
 <S|| Hso(L-) ||S'> = (0.000000,-0.000000)
 <S|| Hso(L0) ||S'> = (0.000000,0.000000)
 <S|| Hso(L+) ||S'> = (0.000000,0.000000)
 SOCC = 0.000000
 Actual matrix elements:
       |Sz=-0.50>           |Sz=0.50>
 <Sz=-1.50|(0.000000,0.000000)(0.000000,0.000000)
 <Sz=-0.50|(-0.000000,0.000000)(0.000000,0.000000)
 <Sz=0.50|(0.000000,-0.000000)(0.000000,0.000000)
 <Sz=1.50|(0.000000,0.000000)(0.000000,-0.000000)
 _________________________________________________
 Mean-field SO (cm-1)
 Reduced matrix elements:
 <S|| Hso(L-) ||S'> = (0.000000,-0.000000)
 <S|| Hso(L0) ||S'> = (0.000000,0.000000)
 <S|| Hso(L+) ||S'> = (0.000000,0.000000)
 SOCC = 0.000000
 Actual matrix elements:
       |Sz=-0.50>           |Sz=0.50>
 <Sz=-1.50|(0.000000,0.000000)(0.000000,0.000000)
 <Sz=-0.50|(-0.000000,0.000000)(0.000000,0.000000)
 <Sz=0.50|(0.000000,-0.000000)(0.000000,0.000000)
 <Sz=1.50|(0.000000,0.000000)(0.000000,-0.000000)
 Singlet part of <S|| Hso(L0) ||S'> = (-0.000000,-0.000000) (excluded from all matrix elements)
 L-/L+ Averaged reduced matrix elements:
 <S|| Hso(L-) ||S'> = (0.000000,-0.000000)
 <S|| Hso(L+) ||S'> = (0.000000,0.000000)
 ______________________________________________________________
 B(Ket)->A(Bra) transition SO matrices
Full 2e SOC is not implemented withing libqints. 
I will do mean-field SOC with libqints, which is usually as good as full 2e SOC
 Analysing Sz ans S^2 of the pair of states...
 Ket state:  Computed S^2 = 3.750000 will be treated as 3.750000 Sz = -0.500000
 Bra state:  Computed S^2 = 0.750000 will be treated as 0.750000 Sz = -0.500000
 Clebsh-Gordan coefficient: <1.500,-0.500;1.000,0.000|0.500,-0.500> = -0.577
 _________________________________________________
 One-electron SO (cm-1)
 Reduced matrix elements:
 <S|| Hso(L-) ||S'> = (0.000000,-0.000000)
 <S|| Hso(L0) ||S'> = (0.000000,0.000000)
 <S|| Hso(L+) ||S'> = (0.000000,0.000000)
 SOCC = 0.000000
 Actual matrix elements:
       |Sz=-1.50>           |Sz=-0.50>           |Sz=0.50>           |Sz=1.50>
 <Sz=-0.50|(0.000000,-0.000000)(-0.000000,-0.000000)(0.000000,0.000000)(0.000000,0.000000)
 <Sz=0.50|(0.000000,0.000000)(0.000000,-0.000000)(0.000000,-0.000000)(0.000000,0.000000)
 _________________________________________________
 Mean-field SO (cm-1)
 Reduced matrix elements:
 <S|| Hso(L-) ||S'> = (0.000000,-0.000000)
 <S|| Hso(L0) ||S'> = (0.000000,0.000000)
 <S|| Hso(L+) ||S'> = (0.000000,0.000000)
 SOCC = 0.000000
 Actual matrix elements:
       |Sz=-1.50>           |Sz=-0.50>           |Sz=0.50>           |Sz=1.50>
 <Sz=-0.50|(0.000000,-0.000000)(-0.000000,-0.000000)(0.000000,0.000000)(0.000000,0.000000)
 <Sz=0.50|(0.000000,0.000000)(0.000000,-0.000000)(0.000000,-0.000000)(0.000000,0.000000)
 Singlet part of <S|| Hso(L0) ||S'> = (-0.000000,-0.000000) (excluded from all matrix elements)
 L-/L+ Averaged reduced matrix elements:
 <S|| Hso(L-) ||S'> = (0.000000,-0.000000)
 <S|| Hso(L+) ||S'> = (0.000000,0.000000)
 ______________________________________________________________
   Arithmetically averaged transition SO matrices
   (The phases shown, Ket and Bra assingment are from A(Ket)->B(Bra))
 _________________________________________________
 One-electron SO (cm-1)
 SOCC = 0.000000
 Actual matrix elements:
       |Sz=-0.50>           |Sz=0.50>
 <Sz=-1.50|(0.000000,0.000000)(0.000000,0.000000)
 <Sz=-0.50|(-0.000000,0.000000)(0.000000,0.000000)
 <Sz=0.50|(0.000000,-0.000000)(0.000000,0.000000)
 <Sz=1.50|(0.000000,-0.000000)(0.000000,-0.000000)
 _________________________________________________
 Mean-field SO (cm-1)
 SOCC = 0.000000
 Actual matrix elements:
       |Sz=-0.50>           |Sz=0.50>
 <Sz=-1.50|(0.000000,0.000000)(0.000000,0.000000)
 <Sz=-0.50|(-0.000000,0.000000)(0.000000,0.000000)
 <Sz=0.50|(0.000000,-0.000000)(0.000000,0.000000)
 <Sz=1.50|(0.000000,-0.000000)(0.000000,-0.000000)
 ______________________________________________________________

 ------------------------------------------------------------------------------
 State A: eomip_mp2/a: 1/B2
 State B: eomip_mp2/a: 3/B2
 Energy GAP = 0.729764 a.u. = 19.857901 eV
 Transition dipole moment (a.u.):
   A->B: 0.034788 (X 0.000000, Y 0.000000, Z -0.034788)
   B->A: 0.040846 (X 0.000000, Y 0.000000, Z -0.040846)
 Oscillator strength (a.u.): 0.000691
 Transition angular momentum against gauge origin (a.u.):
   A->B:  (X 0.000000i, Y 0.000000i, Z 0.000000i)
   B->A:  (X 0.000000i, Y 0.000000i, Z 0.000000i)
 Norm of one-particle transition density matrix:
   A->B: 0.569166;   B->A: 0.573546
   ||gamma^AB||*||gamma^BA||: 0.326443

 ______________________________________________________________
 A(Ket)->B(Bra) transition SO matrices
Full 2e SOC is not implemented withing libqints. 
I will do mean-field SOC with libqints, which is usually as good as full 2e SOC
 Analysing Sz ans S^2 of the pair of states...
 Ket state:  Computed S^2 = 0.750000 will be treated as 0.750000 Sz = -0.500000
 Bra state:  Computed S^2 = 0.750000 will be treated as 0.750000 Sz = -0.500000
 Clebsh-Gordan coefficient: <0.500,-0.500;1.000,0.000|0.500,-0.500> = 0.577
 _________________________________________________
 One-electron SO (cm-1)
 Reduced matrix elements:
 <S|| Hso(L-) ||S'> = (0.000000,-0.000000)
 <S|| Hso(L0) ||S'> = (0.000000,0.000000)
 <S|| Hso(L+) ||S'> = (0.000000,0.000000)
 SOCC = 0.000000
 Actual matrix elements:
       |Sz=-0.50>           |Sz=0.50>
 <Sz=-0.50|(0.000000,0.000000)(-0.000000,-0.000000)
 <Sz=0.50|(0.000000,-0.000000)(0.000000,-0.000000)
 _________________________________________________
 Mean-field SO (cm-1)
 Reduced matrix elements:
 <S|| Hso(L-) ||S'> = (0.000000,-0.000000)
 <S|| Hso(L0) ||S'> = (0.000000,0.000000)
 <S|| Hso(L+) ||S'> = (0.000000,0.000000)
 SOCC = 0.000000
 Actual matrix elements:
       |Sz=-0.50>           |Sz=0.50>
 <Sz=-0.50|(0.000000,0.000000)(-0.000000,-0.000000)
 <Sz=0.50|(0.000000,-0.000000)(0.000000,-0.000000)
 Singlet part of <S|| Hso(L0) ||S'> = (-0.000000,-0.000000) (excluded from all matrix elements)
 L-/L+ Averaged reduced matrix elements:
 <S|| Hso(L-) ||S'> = (0.000000,-0.000000)
 <S|| Hso(L+) ||S'> = (0.000000,0.000000)
 ______________________________________________________________
 B(Ket)->A(Bra) transition SO matrices
Full 2e SOC is not implemented withing libqints. 
I will do mean-field SOC with libqints, which is usually as good as full 2e SOC
 Analysing Sz ans S^2 of the pair of states...
 Ket state:  Computed S^2 = 0.750000 will be treated as 0.750000 Sz = -0.500000
 Bra state:  Computed S^2 = 0.750000 will be treated as 0.750000 Sz = -0.500000
 Clebsh-Gordan coefficient: <0.500,-0.500;1.000,0.000|0.500,-0.500> = 0.577
 _________________________________________________
 One-electron SO (cm-1)
 Reduced matrix elements:
 <S|| Hso(L-) ||S'> = (-0.000000,0.000000)
 <S|| Hso(L0) ||S'> = (0.000000,-0.000000)
 <S|| Hso(L+) ||S'> = (-0.000000,-0.000000)
 SOCC = 0.000000
 Actual matrix elements:
       |Sz=-0.50>           |Sz=0.50>
 <Sz=-0.50|(0.000000,-0.000000)(0.000000,0.000000)
 <Sz=0.50|(-0.000000,0.000000)(-0.000000,0.000000)
 _________________________________________________
 Mean-field SO (cm-1)
 Reduced matrix elements:
 <S|| Hso(L-) ||S'> = (-0.000000,0.000000)
 <S|| Hso(L0) ||S'> = (0.000000,-0.000000)
 <S|| Hso(L+) ||S'> = (-0.000000,-0.000000)
 SOCC = 0.000000
 Actual matrix elements:
       |Sz=-0.50>           |Sz=0.50>
 <Sz=-0.50|(0.000000,-0.000000)(0.000000,0.000000)
 <Sz=0.50|(-0.000000,0.000000)(-0.000000,0.000000)
 Singlet part of <S|| Hso(L0) ||S'> = (-0.000000,-0.000000) (excluded from all matrix elements)
 L-/L+ Averaged reduced matrix elements:
 <S|| Hso(L-) ||S'> = (-0.000000,0.000000)
 <S|| Hso(L+) ||S'> = (-0.000000,-0.000000)
 ______________________________________________________________
   Arithmetically averaged transition SO matrices
   (The phases shown, Ket and Bra assingment are from A(Ket)->B(Bra))
 _________________________________________________
 One-electron SO (cm-1)
 SOCC = 0.000000
 Actual matrix elements:
       |Sz=-0.50>           |Sz=0.50>
 <Sz=-0.50|(0.000000,0.000000)(-0.000000,-0.000000)
 <Sz=0.50|(0.000000,-0.000000)(0.000000,-0.000000)
 _________________________________________________
 Mean-field SO (cm-1)
 SOCC = 0.000000
 Actual matrix elements:
       |Sz=-0.50>           |Sz=0.50>
 <Sz=-0.50|(0.000000,0.000000)(-0.000000,-0.000000)
 <Sz=0.50|(0.000000,-0.000000)(0.000000,-0.000000)
 ______________________________________________________________

 ------------------------------------------------------------------------------
 State A: eomip_mp2/a: 1/B2
 State B: eomip_mp2/a: 4/B2
 Energy GAP = 0.813555 a.u. = 22.137982 eV
 Transition dipole moment (a.u.):
   A->B: 0.000019 (X 0.000000, Y 0.000000, Z -0.000019)
   B->A: 0.000013 (X 0.000000, Y 0.000000, Z 0.000013)
 Oscillator strength (a.u.): -0.000000
 Transition angular momentum against gauge origin (a.u.):
   A->B:  (X 0.000000i, Y 0.000000i, Z 0.000000i)
   B->A:  (X 0.000000i, Y 0.000000i, Z 0.000000i)
 Norm of one-particle transition density matrix:
   A->B: 0.799436;   B->A: 0.803303
   ||gamma^AB||*||gamma^BA||: 0.642190

 ______________________________________________________________
 A(Ket)->B(Bra) transition SO matrices
Full 2e SOC is not implemented withing libqints. 
I will do mean-field SOC with libqints, which is usually as good as full 2e SOC
 Analysing Sz ans S^2 of the pair of states...
 Ket state:  Computed S^2 = 0.750000 will be treated as 0.750000 Sz = -0.500000
 Bra state:  Computed S^2 = 3.750000 will be treated as 3.750000 Sz = -0.500000
 Clebsh-Gordan coefficient: <0.500,-0.500;1.000,0.000|1.500,-0.500> = 0.816
 _________________________________________________
 One-electron SO (cm-1)
 Reduced matrix elements:
 <S|| Hso(L-) ||S'> = (0.000000,0.000000)
 <S|| Hso(L0) ||S'> = (0.000000,0.000000)
 <S|| Hso(L+) ||S'> = (0.000000,-0.000000)
 SOCC = 0.000000
 Actual matrix elements:
       |Sz=-0.50>           |Sz=0.50>
 <Sz=-1.50|(0.000000,-0.000000)(0.000000,0.000000)
 <Sz=-0.50|(-0.000000,0.000000)(0.000000,-0.000000)
 <Sz=0.50|(0.000000,0.000000)(0.000000,0.000000)
 <Sz=1.50|(0.000000,0.000000)(0.000000,0.000000)
 _________________________________________________
 Mean-field SO (cm-1)
 Reduced matrix elements:
 <S|| Hso(L-) ||S'> = (0.000000,0.000000)
 <S|| Hso(L0) ||S'> = (0.000000,0.000000)
 <S|| Hso(L+) ||S'> = (0.000000,-0.000000)
 SOCC = 0.000000
 Actual matrix elements:
       |Sz=-0.50>           |Sz=0.50>
 <Sz=-1.50|(0.000000,-0.000000)(0.000000,0.000000)
 <Sz=-0.50|(-0.000000,0.000000)(0.000000,-0.000000)
 <Sz=0.50|(0.000000,0.000000)(0.000000,0.000000)
 <Sz=1.50|(0.000000,0.000000)(0.000000,0.000000)
 Singlet part of <S|| Hso(L0) ||S'> = (-0.000000,-0.000000) (excluded from all matrix elements)
 L-/L+ Averaged reduced matrix elements:
 <S|| Hso(L-) ||S'> = (0.000000,0.000000)
 <S|| Hso(L+) ||S'> = (0.000000,-0.000000)
 ______________________________________________________________
 B(Ket)->A(Bra) transition SO matrices
Full 2e SOC is not implemented withing libqints. 
I will do mean-field SOC with libqints, which is usually as good as full 2e SOC
 Analysing Sz ans S^2 of the pair of states...
 Ket state:  Computed S^2 = 3.750000 will be treated as 3.750000 Sz = -0.500000
 Bra state:  Computed S^2 = 0.750000 will be treated as 0.750000 Sz = -0.500000
 Clebsh-Gordan coefficient: <1.500,-0.500;1.000,0.000|0.500,-0.500> = -0.577
 _________________________________________________
 One-electron SO (cm-1)
 Reduced matrix elements:
 <S|| Hso(L-) ||S'> = (0.000000,0.000000)
 <S|| Hso(L0) ||S'> = (0.000000,0.000000)
 <S|| Hso(L+) ||S'> = (0.000000,-0.000000)
 SOCC = 0.000000
 Actual matrix elements:
       |Sz=-1.50>           |Sz=-0.50>           |Sz=0.50>           |Sz=1.50>
 <Sz=-0.50|(0.000000,0.000000)(-0.000000,-0.000000)(0.000000,-0.000000)(0.000000,-0.000000)
 <Sz=0.50|(0.000000,0.000000)(0.000000,0.000000)(0.000000,-0.000000)(0.000000,-0.000000)
 _________________________________________________
 Mean-field SO (cm-1)
 Reduced matrix elements:
 <S|| Hso(L-) ||S'> = (0.000000,0.000000)
 <S|| Hso(L0) ||S'> = (0.000000,0.000000)
 <S|| Hso(L+) ||S'> = (0.000000,-0.000000)
 SOCC = 0.000000
 Actual matrix elements:
       |Sz=-1.50>           |Sz=-0.50>           |Sz=0.50>           |Sz=1.50>
 <Sz=-0.50|(0.000000,0.000000)(-0.000000,-0.000000)(0.000000,-0.000000)(0.000000,-0.000000)
 <Sz=0.50|(0.000000,0.000000)(0.000000,0.000000)(0.000000,-0.000000)(0.000000,-0.000000)
 Singlet part of <S|| Hso(L0) ||S'> = (-0.000000,-0.000000) (excluded from all matrix elements)
 L-/L+ Averaged reduced matrix elements:
 <S|| Hso(L-) ||S'> = (0.000000,0.000000)
 <S|| Hso(L+) ||S'> = (0.000000,-0.000000)
 ______________________________________________________________
   Arithmetically averaged transition SO matrices
   (The phases shown, Ket and Bra assingment are from A(Ket)->B(Bra))
 _________________________________________________
 One-electron SO (cm-1)
 SOCC = 0.000000
 Actual matrix elements:
       |Sz=-0.50>           |Sz=0.50>
 <Sz=-1.50|(0.000000,-0.000000)(0.000000,0.000000)
 <Sz=-0.50|(-0.000000,0.000000)(0.000000,-0.000000)
 <Sz=0.50|(0.000000,0.000000)(0.000000,0.000000)
 <Sz=1.50|(0.000000,0.000000)(0.000000,0.000000)
 _________________________________________________
 Mean-field SO (cm-1)
 SOCC = 0.000000
 Actual matrix elements:
       |Sz=-0.50>           |Sz=0.50>
 <Sz=-1.50|(0.000000,-0.000000)(0.000000,0.000000)
 <Sz=-0.50|(-0.000000,0.000000)(0.000000,-0.000000)
 <Sz=0.50|(0.000000,0.000000)(0.000000,0.000000)
 <Sz=1.50|(0.000000,0.000000)(0.000000,0.000000)
 ______________________________________________________________


 All requested transition properties have been computed

 Transition Properties:   CPU 3.66 s  wall 3.58 s

 Total ccman2 time:   CPU 10.23 s  wall 10.27 s

 
 --------------------------------------------------------------
             Orbital Energies (a.u.) and Symmetries
 --------------------------------------------------------------
 
 Alpha MOs, Restricted
 -- Occupied --                  
-20.240  -1.244  -0.604  -0.437  -0.385
  1 A1    2 A1    1 B1    3 A1    1 B2                                         
 -- Virtual --                   
  0.557   0.710
  4 A1    2 B1                                                                 
 
 Beta MOs, Restricted
 -- Occupied --                  
-20.240  -1.244  -0.604  -0.437  -0.385
  1 A1    2 A1    1 B1    3 A1    1 B2                                         
 -- Virtual --                   
  0.557   0.710
  4 A1    2 B1                                                                 
 --------------------------------------------------------------
 
          Ground-State Mulliken Net Atomic Charges

     Atom                 Charge (a.u.)
  ----------------------------------------
      1 O                     0.130236
      2 H                     0.434882
      3 H                     0.434882
  ----------------------------------------
  Sum of atomic charges =     1.000000

 -----------------------------------------------------------------
                    Cartesian Multipole Moments
 -----------------------------------------------------------------
    Charge (ESU x 10^10)
                 4.8032
    Dipole Moment (Debye)
         X       0.0000      Y      -0.0000      Z      -2.3548
       Tot       2.3548
    Quadrupole Moments (Debye-Ang)
        XX      -2.0492     XY       0.0000     YY      -4.7042
        XZ      -0.0000     YZ      -0.0000     ZZ      -4.3263
    Octopole Moments (Debye-Ang^2)
       XXX       0.0000    XXY      -0.0000    XYY       0.0000
       YYY      -0.0000    XXZ      -1.6198    XYZ      -0.0000
       YYZ      -0.0660    XZZ       0.0000    YZZ      -0.0000
       ZZZ      -0.9381
    Hexadecapole Moments (Debye-Ang^3)
      XXXX      -3.6859   XXXY       0.0000   XXYY      -1.3909
      XYYY       0.0000   YYYY      -2.3336   XXXZ      -0.0000
      XXYZ      -0.0000   XYYZ      -0.0000   YYYZ      -0.0000
      XXZZ      -0.8995   XYZZ       0.0000   YYZZ      -1.0692
      XZZZ      -0.0000   YZZZ      -0.0000   ZZZZ      -3.8531
 -----------------------------------------------------------------
 Mayer SCF Bond Order, atomic valence on the diagonal:

            1           2           3
    1   1.6033317   0.7827607   0.7827607
    2   0.7827607   0.8093414   0.0124274
    3   0.7827607   0.0124274   0.8093414


 Total job time:  12.46s(wall), 11.20s(cpu) 
 Thu Jan 18 01:32:04 2024

        *************************************************************
        *                                                           *
        *  Thank you very much for using Q-Chem.  Have a nice day.  *
        *                                                           *
        *************************************************************


