                  Welcome to Q-Chem
     A Quantum Leap Into The Future Of Chemistry


 Q-Chem 6.0 (devel), Q-Chem, Inc., Pleasanton, CA (2022)

 E. Epifanovsky,  A. T. B. Gilbert,  Xintian Feng,  Joonho Lee,  Yuezhi Mao,  
 N. Mardirossian,  P. Pokhilko,  A. White,  M. Wormit,  M. P. Coons,  
 A. L. Dempwolff,  Zhengting Gan,  D. Hait,  P. R. Horn,  L. D. Jacobson,  
 I. Kaliman,  J. Kussmann,  A. W. Lange,  Ka Un Lao,  D. S. Levine,  Jie Liu,  
 S. C. McKenzie,  A. F. Morrison,  K. Nanda,  F. Plasser,  D. R. Rehn,  
 M. L. Vidal,  Zhi-Qiang You,  Ying Zhu,  B. Alam,  B. Albrecht,  
 A. Aldossary,  E. Alguire,  J. H. Andersen,  V. Athavale,  D. Barton,  
 K. Begam,  A. Behn,  N. Bellonzi,  Y. A. Bernard,  E. J. Berquist,  
 H. Burton,  A. Carreras,  K. Carter-Fenk,  Romit Chakraborty,  
 Chandrima Chakravarty,  Junhan Chen,  A. D. Chien,  K. D. Closser,  
 V. Cofer-Shabica,  L. Cunha,  S. Dasgupta,  Jia Deng,  M. de Wergifosse,  
 M. Diedenhofen,  Hainam Do,  S. Ehlert,  Po-Tung Fang,  S. Fatehi,  
 Qingguo Feng,  T. Friedhoff,  B. Ganoe,  J. Gayvert,  Qinghui Ge,  
 G. Gidofalvi,  M. Goldey,  J. Gomes,  C. Gonzalez-Espinoza,  S. Gulania,  
 A. Gunina,  J. A. Gyamfi,  M. W. D. Hanson-Heine,  P. H. P. Harbach,  
 A. W. Hauser,  M. F. Herbst,  M. Hernandez Vera,  M. Hodecker,  
 Z. C. Holden,  S. Houck,  Xunkun Huang,  Kerwin Hui,  B. C. Huynh,  
 K. Ikeda,  M. Ivanov,  Hyunjun Ji,  Zuxin Jin,  Hanjie Jiang,  B. Kaduk,  
 S. Kaehler,  R. Kang,  K. Khistyaev,  Jaehoon Kim,  Yongbin Kim,  
 P. Klunzinger,  Z. Koczor-Benda,  Joong Hoon Koh,  D. Kosenkov,  
 Saikiran Kotaru,  L. Koulias,  T. Kowalczyk,  C. M. Krauter,  K. Kue,  
 A. Kunitsa,  T. Kus,  A. Landau,  K. V. Lawler,  D. Lefrancois,  S. Lehtola,  
 Rain Li,  Shaozhi Li,  Yi-Pei Li,  Jiashu Liang,  M. Liebenthal,  
 Hung-Hsuan Lin,  You-Sheng Lin,  Fenglai Liu,  Kuan-Yu Liu,  
 M. Loipersberger,  A. Luenser,  C. Malbon,  A. Manjanath,  P. Manohar,  
 E. Mansoor,  S. F. Manzer,  Shan-Ping Mao,  A. V. Marenich,  T. Markovich,  
 S. Mason,  F. Matz,  S. A. Maurer,  P. F. McLaughlin,  M. F. S. J. Menger,  
 J.-M. Mewes,  S. A. Mewes,  P. Morgante,  Mohammad Mostafanejad,  
 J. W. Mullinax,  K. J. Oosterbaan,  G. Paran,  V. Parravicini,  
 Alexander C. Paul,  Suranjan K. Paul,  F. Pavosevic,  Zheng Pei,  S. Prager,  
 E. I. Proynov,  E. Ramos,  B. Rana,  A. E. Rask,  A. Rettig,  R. M. Richard,  
 F. Rob,  E. Rossomme,  T. Scheele,  M. Scheurer,  M. Schneider,  
 P. E. Schneider,  N. Sergueev,  S. M. Sharada,  Hengyuan Shen,  
 W. Skomorowski,  D. W. Small,  C. J. Stein,  Yingli Su,  Yu-Chuan Su,  
 E. J. Sundstrom,  Zhen Tao,  J. Thirman,  Hung-Yi Tsai,  T. Tsuchimochi,  
 N. M. Tubman,  C. Utku,  S. P. Veccham,  O. Vydrov,  J. Wenzel,  
 Jonathan Wong,  J. Witte,  A. Yamada,  Chou-Hsun Yang,  Kun Yao,  
 S. Yeganeh,  S. R. Yost,  A. Zech,  F. Zeller,  Igor Ying Zhang,  
 Xing Zhang,  Yu Zhang,  D. Zuev,  A. Aspuru-Guzik,  A. T. Bell,  
 N. A. Besley,  K. B. Bravaya,  B. R. Brooks,  D. Casanova,  Jeng-Da Chai,  
 Hsing-Ta Chen,  S. Coriani,  C. J. Cramer,  A. E. DePrince, III,  
 R. A. DiStasio Jr.,  A. Dreuw,  B. D. Dunietz,  T. R. Furlani,  
 W. A. Goddard III,  S. Grimme,  S. Hammes-Schiffer,  T. Head-Gordon,  
 W. J. Hehre,  Chao-Ping Hsu,  T.-C. Jagau,  Yousung Jung,  A. Klamt,  
 Jing Kong,  D. S. Lambrecht,  Xiangyuan Li,  WanZhen Liang,  N. J. Mayhall,  
 C. W. McCurdy,  J. B. Neaton,  T. Neudecker,  C. Ochsenfeld,  
 J. A. Parkhill,  R. Peverati,  V. A. Rassolov,  Haisheng Ren,  Yihan Shao,  
 L. V. Slipchenko,  R. P. Steele,  J. E. Subotnik,  A. J. W. Thom,  
 A. Tkatchenko,  D. G. Truhlar,  T. Van Voorhis,  Fan Wang,  
 T. A. Wesolowski,  K. B. Whaley,  H. L. Woodcock III,  P. M. Zimmerman,  
 S. Faraji,  P. M. W. Gill,  M. Head-Gordon,  J. M. Herbert,  A. I. Krylov

 Contributors to earlier versions of Q-Chem not listed above: 
 R. D. Adamson,  B. Austin,  R. Baer,  J. Baker,  G. J. O. Beran,  
 K. Brandhorst,  S. T. Brown,  E. F. C. Byrd,  Arup K. Chakraborty,  
 G. K. L. Chan,  Chun-Min Chang,  Yunqing Chen,  C.-L. Cheng,  
 Siu Hung Chien,  D. M. Chipman,  D. L. Crittenden,  H. Dachsel,  
 R. J. Doerksen,  A. D. Dutoi,  R. G. Edgar,  J. Fosso-Tande,  
 L. Fusti-Molnar,  D. Ghosh,  A. Ghysels,  A. Golubeva-Zadorozhnaya,  
 J. Gonthier,  M. S. Gordon,  S. R. Gwaltney,  G. Hawkins,  J. E. Herr,  
 A. Heyden,  S. Hirata,  E. G. Hohenstein,  G. Kedziora,  F. J. Keil,  
 C. Kelley,  Jihan Kim,  R. A. King,  R. Z. Khaliullin,  P. P. Korambath,  
 W. Kurlancheek,  A. Laurent,  A. M. Lee,  M. S. Lee,  S. V. Levchenko,  
 Ching Yeh Lin,  D. Liotard,  E. Livshits,  R. C. Lochan,  I. Lotan,  
 L. A. Martinez-Martinez,  P. E. Maslen,  N. Nair,  D. P. O'Neill,  
 D. Neuhauser,  E. Neuscamman,  C. M. Oana,  R. Olivares-Amaya,  R. Olson,  
 T. M. Perrine,  B. Peters,  P. A. Pieniazek,  A. Prociuk,  Y. M. Rhee,  
 J. Ritchie,  M. A. Rohrdanz,  E. Rosta,  N. J. Russ,  H. F. Schaefer III,  
 M. W. Schmidt,  N. E. Schultz,  S. Sharma,  N. Shenvi,  C. D. Sherrill,  
 A. C. Simmonett,  A. Sodt,  T. Stein,  D. Stuck,  K. S. Thanthiriwatte,  
 V. Vanovschi,  L. Vogt,  Tao Wang,  A. Warshel,  M. A. Watson,  
 C. F. Williams,  Q. Wu,  X. Xu,  Jun Yang,  W. Zhang,  Yan Zhao

   Please cite Q-Chem as follows:
  "Software for the frontiers of quantum chemistry:
   An overview of developments in the Q-Chem 5 package"
   J. Chem. Phys. 155, 084801 (2021)
   https://doi.org/10.1063/5.0055522 (open access)

 Q-Chem 6.0.1 for Intel X86 EM64T Linux

 Parts of Q-Chem use Armadillo 9.900.5 (Nocturnal Misbehaviour).
 http://arma.sourceforge.net/

 Q-Chem begins on Thu Jan 25 18:11:04 2024  

 Host: atlas-088
0

     Scratch files written to ./qchem31802//
 Processing $rem in /scratch/abel/SOFTWARE/qchem/config/preferences:
 Processing $rem in /dipc/acebg/.qchemrc:
 Core orbitals will be frozen

 Checking the input file for inconsistencies... 	...done.

--------------------------------------------------------------
User input:
--------------------------------------------------------------
$comment
 RAS-SF CALCULATION
$end

$molecule
 READ anthracene_opt_singlet.molecule
$end

$rem
!**CALCULATION TYPE***     
JOBTYPE            sp    
BASIS              6-31G*
!BASIS2             STO-3G

!***SCF REFERENCE***
!INPUT_BOHR         TRUE
!SKIP_SCFMAN        FALSE
UNRESTRICTED       FALSE
!SCF_GUESS          core
!SCF_GUESS_MIX      FALSE
!SCF_GUESS_ALWAYS   FALSE
MAX_SCF_CYCLES     500
!SCF_CONVERGENCE    10
SCF_ALGORITHM      DIIS_GDM !DIIS,DM,DIIS_DM,GDM,DIIS_GDM,GD

!SYMMETRY           TRUE   !use of symmetry for calculating integrals
!SYM_IGNORE         FALSE  !turn off using symmetry
!SYM_TOL            5      !tolerance for determining point group
!USE_ABELIAN_SUBGROUP      !define to use abelian group

!THRESH             14
!SCF_FINAL_PRINT     1 !0,1,2,3

!****CCSD****
CORRELATION        CCSD
!CC_CONVERGENCE     6
!CC_MAX_ITER        200
CC_PRINT	   1
!CHOLESKY_TOL       3 !Toler. decomposition 2e integrals
CC_REF_PROP  	   1 !one-particle CCSD properties calculation
!CC_REF_PROP_TE	   0 !two-particle CCSD properties calculation
!CC_FNO_THRESH
!CC_BACKEND	   XM !Used to specify the computational back-end of CCMAN2.

!****MEMORY****
MEM_TOTAL          90000 !Default 2000 MB
MEM_STATIC         1000  !Default 64 MB
CC_MEMORY          72000

!**Molecular Properties and Analysis **                                                                                          
!POP_MULLIKEN       TRUE   !Run Mulliken population analysis
!LOWDIN_POPULATION  TRUE   !Run Löwdin population analysis
GUI                0       !Checkpoints generation
!STATE_ANALYSIS     TRUE

!**Wave function analysis**
!PLOTS = 0     ! Note: This can be omitted, default is 0
!NTO_PAIRS = 2 ! Note: This can be omitted, default is 2
!GUI 0
!MOLDEN_FORMAT      TRUE
!PRINT_ORBITALS     15
$end

!$plots
!   grid_points 100 100 100
!   grid_range  (-10,10) (-10,10) (-10,10)
!$end

--------------------------------------------------------------
 ----------------------------------------------------------------
             Standard Nuclear Orientation (Angstroms)
    I     Atom           X                Y                Z
 ----------------------------------------------------------------
    1      C       1.2528696110    -0.7144616643     0.0000611748
    2      C       2.4661185256    -1.3873929098     0.0000888763
    3      H       2.4670317640    -2.4712684532    -0.0003057438
    4      C       3.6841006918    -0.6876643530     0.0000015246
    5      H       4.6172560521    -1.2351253405    -0.0000635121
    6      C       3.6841005673     0.6876646405     0.0001354170
    7      H       4.6172557863     1.2351258725     0.0001490616
    8      C       2.4661182998     1.3873930201     0.0000396542
    9      H       2.4670309197     2.4712685933     0.0003432278
   10      C       1.2528695387     0.7144615088    -0.0000846763
   11      C       0.0000005393    -1.4023074043    -0.0001838106
   12      H       0.0000006531    -2.4857083698    -0.0004570569
   13      C      -0.0000005712     1.4023074721    -0.0001838566
   14      H      -0.0000006933     2.4857084373    -0.0004585605
   15      C      -1.2528696259     0.7144617005     0.0000593180
   16      C      -2.4661185573     1.3873929157     0.0000876230
   17      H      -2.4670314450     2.4712684589    -0.0003085620
   18      C      -3.6841006695     0.6876642646     0.0000023815
   19      H      -4.6172559004     1.2351254729    -0.0000599772
   20      C      -3.6841005823    -0.6876647288     0.0001370081
   21      H      -4.6172558928    -1.2351258048     0.0001546533
   22      C      -2.4661182611    -1.3873930144     0.0000375438
   23      H      -2.4670312506    -2.4712685875     0.0003405012
   24      C      -1.2528695051    -0.7144614941    -0.0000871830
 ----------------------------------------------------------------
 Molecular Point Group                 C1    NOp =  1
 Largest Abelian Subgroup              C1    NOp =  1
 Nuclear Repulsion Energy =         766.54296530 hartrees
 There are       47 alpha and       47 beta electrons
 Requested basis set is 6-31G(d)
 There are 76 shells and 230 basis functions
 Total memory of 90000 MB is distributed as follows: 
   MEM_STATIC is set to 1000 MB
   QALLOC/CCMAN JOB total memory use is  89000 MB
 Warning: actual memory use might exceed 90000 MB

 Total QAlloc Memory Limit  90000 MB
 Mega-Array Size       978 MB
 MEM_STATIC part      1000 MB

 A cutoff of  1.0D-14 yielded   2431 shell pairs
 There are     23770 function pairs
 Smallest overlap matrix eigenvalue = 2.25E-04

 Scale SEOQF with 1.000000e-01/1.000000e-01/1.000000e+00

 Standard Electronic Orientation quadrupole field applied
 Nucleus-field energy     =     0.0000000318 hartrees
 Guess from superposition of atomic densities
 Warning:  Energy on first SCF cycle will be non-variational
 SAD guess density has 94.000000 electrons

 -----------------------------------------------------------------------
  General SCF calculation program by
  Eric Jon Sundstrom, Paul Horn, Yuezhi Mao, Dmitri Zuev, Alec White,
  David Stuck, Shaama M.S., Shane Yost, Joonho Lee, David Small,
  Daniel Levine, Susi Lehtola, Hugh Burton, Evgeny Epifanovsky,
  Bang C. Huynh
 -----------------------------------------------------------------------
 Hartree-Fock
 A restricted SCF calculation will be
 performed using DIIS, GDM
 SCF converges when RMS gradient is below 1.0e-08
 ---------------------------------------
  Cycle       Energy         DIIS error
 ---------------------------------------
    1    -542.3592215162      5.74e-02  
    2    -535.8266278639      3.73e-03  Done DIIS. Switching to GDM
 ---------------------------------------
  Cycle       Energy        RMS Gradient
 ---------------------------------------
    1    -535.8266278639      6.90e-02   Descent step
    2    -535.9632547074      1.85e-02   Normal BFGS step
    3    -535.9736937786      1.59e-02   Normal BFGS step
    4    -535.9745773861      6.83e-03   Normal BFGS step
    5    -535.9747637589      1.48e-03   Normal BFGS step
    6    -535.9747772339      8.47e-04   Normal BFGS step
    7    -535.9747818021      1.44e-04   Normal BFGS step
    8    -535.9747819637      3.38e-05   Normal BFGS step
    9    -535.9747819825      6.13e-06   Normal BFGS step
   10    -535.9747819831      1.59e-06   Normal BFGS step
   11    -535.9747819831      5.19e-07   Normal BFGS step
   12    -535.9747819831      2.02e-07   Normal BFGS step
   13    -535.9747819831      6.06e-08   Normal BFGS step
   14    -535.9747819831      5.98e-09  Convergence criterion met
 ---------------------------------------
 SCF time:   CPU 52.56s  wall 53.00s 
 SCF   energy in the final basis set =     -535.9747819831
 Total energy in the final basis set =     -535.9747819831


 ------------------------------------------------------------------------------

   CCMAN2: suite of methods based on coupled cluster
           and equation of motion theories.

   Components:
   * libvmm-1.3-trunk
     by Evgeny Epifanovsky, Ilya Kaliman.
   * libtensor-2.5-trunk
     by Evgeny Epifanovsky, Michael Wormit, Dmitry Zuev, Sam Manzer, 
        Ilya Kaliman.
   * libcc-2.5-trunk
     by Evgeny Epifanovsky, Arik Landau, Tomasz Kus, Kirill Khistyaev, 
        Dmitry Zuev, Prashant Manohar, Xintian Feng, Anna Krylov, 
        Matthew Goldey, Alec White, Thomas Jagau, Kaushik Nanda, 
        Anastasia Gunina, Alexander Kunitsa, Joonho Lee.

   CCMAN original authors:
   Anna I. Krylov, C. David Sherrill, Steven R. Gwaltney,
   Edward F. C. Byrd (2000)
   Sergey V. Levchenko, Lyudmila V. Slipchenko, Tao Wang,
   Ana-Maria C. Cristian (2003)
   Piotr A. Pieniazek, C. Melania Oana, Evgeny Epifanovsky (2007)
   Prashant Manohar (2009)

 ------------------------------------------------------------------------------


 Allocating and initializing 72000MB of RAM...
 Calculation will run on 1 core.

 
 Alpha MOs, Restricted
 -- Occupied --                  
-11.244 -11.243 -11.243 -11.242 -11.242 -11.242 -11.237 -11.237
  1 A     2 A     3 A     4 A     5 A     6 A     7 A     8 A                  
-11.236 -11.236 -11.236 -11.236 -11.235 -11.235  -1.182  -1.149
  9 A    10 A    11 A    12 A    13 A    14 A    15 A    16 A                  
 -1.077  -1.056  -1.018  -1.012  -0.942  -0.888  -0.832  -0.813
 17 A    18 A    19 A    20 A    21 A    22 A    23 A    24 A                  
 -0.811  -0.747  -0.706  -0.683  -0.641  -0.638  -0.623  -0.619
 25 A    26 A    27 A    28 A    29 A    30 A    31 A    32 A                  
 -0.584  -0.571  -0.569  -0.553  -0.540  -0.527  -0.498  -0.493
 33 A    34 A    35 A    36 A    37 A    38 A    39 A    40 A                  
 -0.478  -0.472  -0.404  -0.397  -0.338  -0.313  -0.234
 41 A    42 A    43 A    44 A    45 A    46 A    47 A                          
 -- Virtual --                   
  0.046   0.125   0.155   0.203   0.235   0.243   0.246   0.254
 48 A    49 A    50 A    51 A    52 A    53 A    54 A    55 A                  
  0.287   0.295   0.315   0.319   0.327   0.339   0.363   0.373
 56 A    57 A    58 A    59 A    60 A    61 A    62 A    63 A                  
  0.401   0.431   0.431   0.464   0.468   0.486   0.499   0.507
 64 A    65 A    66 A    67 A    68 A    69 A    70 A    71 A                  
  0.533   0.537   0.575   0.680   0.702   0.712   0.712   0.723
 72 A    73 A    74 A    75 A    76 A    77 A    78 A    79 A                  
  0.736   0.736   0.758   0.764   0.766   0.793   0.798   0.803
 80 A    81 A    82 A    83 A    84 A    85 A    86 A    87 A                  
  0.809   0.813   0.817   0.831   0.833   0.840   0.841   0.846
 88 A    89 A    90 A    91 A    92 A    93 A    94 A    95 A                  
  0.858   0.860   0.861   0.885   0.888   0.893   0.933   0.946
 96 A    97 A    98 A    99 A   100 A   101 A   102 A   103 A                  
  0.985   0.996   1.076   1.077   1.082   1.102   1.108   1.108
104 A   105 A   106 A   107 A   108 A   109 A   110 A   111 A                  
  1.114   1.121   1.132   1.137   1.154   1.156   1.182   1.193
112 A   113 A   114 A   115 A   116 A   117 A   118 A   119 A                  
  1.199   1.212   1.217   1.243   1.255   1.265   1.269   1.300
120 A   121 A   122 A   123 A   124 A   125 A   126 A   127 A                  
  1.341   1.366   1.375   1.428   1.446   1.455   1.482   1.490
128 A   129 A   130 A   131 A   132 A   133 A   134 A   135 A                  
  1.498   1.525   1.542   1.593   1.629   1.643   1.663   1.687
136 A   137 A   138 A   139 A   140 A   141 A   142 A   143 A                  
  1.704   1.712   1.730   1.752   1.766   1.767   1.780   1.782
144 A   145 A   146 A   147 A   148 A   149 A   150 A   151 A                  
  1.784   1.806   1.807   1.809   2.000   2.040   2.097   2.141
152 A   153 A   154 A   155 A   156 A   157 A   158 A   159 A                  
  2.146   2.148   2.185   2.187   2.196   2.197   2.209   2.230
160 A   161 A   162 A   163 A   164 A   165 A   166 A   167 A                  
  2.247   2.263   2.266   2.268   2.308   2.357   2.358   2.369
168 A   169 A   170 A   171 A   172 A   173 A   174 A   175 A                  
  2.430   2.434   2.455   2.484   2.496   2.510   2.521   2.557
176 A   177 A   178 A   179 A   180 A   181 A   182 A   183 A                  
  2.615   2.621   2.627   2.628   2.662   2.688   2.700   2.710
184 A   185 A   186 A   187 A   188 A   189 A   190 A   191 A                  
  2.714   2.735   2.787   2.918   2.932   2.977   2.999   3.010
192 A   193 A   194 A   195 A   196 A   197 A   198 A   199 A                  
  3.013   3.021   3.064   3.103   3.112   3.140   3.160   3.177
200 A   201 A   202 A   203 A   204 A   205 A   206 A   207 A                  
  3.219   3.282   3.282   3.295   3.430   3.483   3.688   3.852
208 A   209 A   210 A   211 A   212 A   213 A   214 A   215 A                  
  3.882   4.506   4.521   4.526   4.540   4.549   4.565   4.578
216 A   217 A   218 A   219 A   220 A   221 A   222 A   223 A                  
  4.667   4.761   4.781   4.852   4.878   5.097   5.295
224 A   225 A   226 A   227 A   228 A   229 A   230 A                          
 
 Beta MOs, Restricted
 -- Occupied --                  
-11.244 -11.243 -11.243 -11.242 -11.242 -11.242 -11.237 -11.237
  1 A     2 A     3 A     4 A     5 A     6 A     7 A     8 A                  
-11.236 -11.236 -11.236 -11.236 -11.235 -11.235  -1.182  -1.149
  9 A    10 A    11 A    12 A    13 A    14 A    15 A    16 A                  
 -1.077  -1.056  -1.018  -1.012  -0.942  -0.888  -0.832  -0.813
 17 A    18 A    19 A    20 A    21 A    22 A    23 A    24 A                  
 -0.811  -0.747  -0.706  -0.683  -0.641  -0.638  -0.623  -0.619
 25 A    26 A    27 A    28 A    29 A    30 A    31 A    32 A                  
 -0.584  -0.571  -0.569  -0.553  -0.540  -0.527  -0.498  -0.493
 33 A    34 A    35 A    36 A    37 A    38 A    39 A    40 A                  
 -0.478  -0.472  -0.404  -0.397  -0.338  -0.313  -0.234
 41 A    42 A    43 A    44 A    45 A    46 A    47 A                          
 -- Virtual --                   
  0.046   0.125   0.155   0.203   0.235   0.243   0.246   0.254
 48 A    49 A    50 A    51 A    52 A    53 A    54 A    55 A                  
  0.287   0.295   0.315   0.319   0.327   0.339   0.363   0.373
 56 A    57 A    58 A    59 A    60 A    61 A    62 A    63 A                  
  0.401   0.431   0.431   0.464   0.468   0.486   0.499   0.507
 64 A    65 A    66 A    67 A    68 A    69 A    70 A    71 A                  
  0.533   0.537   0.575   0.680   0.702   0.712   0.712   0.723
 72 A    73 A    74 A    75 A    76 A    77 A    78 A    79 A                  
  0.736   0.736   0.758   0.764   0.766   0.793   0.798   0.803
 80 A    81 A    82 A    83 A    84 A    85 A    86 A    87 A                  
  0.809   0.813   0.817   0.831   0.833   0.840   0.841   0.846
 88 A    89 A    90 A    91 A    92 A    93 A    94 A    95 A                  
  0.858   0.860   0.861   0.885   0.888   0.893   0.933   0.946
 96 A    97 A    98 A    99 A   100 A   101 A   102 A   103 A                  
  0.985   0.996   1.076   1.077   1.082   1.102   1.108   1.108
104 A   105 A   106 A   107 A   108 A   109 A   110 A   111 A                  
  1.114   1.121   1.132   1.137   1.154   1.156   1.182   1.193
112 A   113 A   114 A   115 A   116 A   117 A   118 A   119 A                  
  1.199   1.212   1.217   1.243   1.255   1.265   1.269   1.300
120 A   121 A   122 A   123 A   124 A   125 A   126 A   127 A                  
  1.341   1.366   1.375   1.428   1.446   1.455   1.482   1.490
128 A   129 A   130 A   131 A   132 A   133 A   134 A   135 A                  
  1.498   1.525   1.542   1.593   1.629   1.643   1.663   1.687
136 A   137 A   138 A   139 A   140 A   141 A   142 A   143 A                  
  1.704   1.712   1.730   1.752   1.766   1.767   1.780   1.782
144 A   145 A   146 A   147 A   148 A   149 A   150 A   151 A                  
  1.784   1.806   1.807   1.809   2.000   2.040   2.097   2.141
152 A   153 A   154 A   155 A   156 A   157 A   158 A   159 A                  
  2.146   2.148   2.185   2.187   2.196   2.197   2.209   2.230
160 A   161 A   162 A   163 A   164 A   165 A   166 A   167 A                  
  2.247   2.263   2.266   2.268   2.308   2.357   2.358   2.369
168 A   169 A   170 A   171 A   172 A   173 A   174 A   175 A                  
  2.430   2.434   2.455   2.484   2.496   2.510   2.521   2.557
176 A   177 A   178 A   179 A   180 A   181 A   182 A   183 A                  
  2.615   2.621   2.627   2.628   2.662   2.688   2.700   2.710
184 A   185 A   186 A   187 A   188 A   189 A   190 A   191 A                  
  2.714   2.735   2.787   2.918   2.932   2.977   2.999   3.010
192 A   193 A   194 A   195 A   196 A   197 A   198 A   199 A                  
  3.013   3.021   3.064   3.103   3.112   3.140   3.160   3.177
200 A   201 A   202 A   203 A   204 A   205 A   206 A   207 A                  
  3.219   3.282   3.282   3.295   3.430   3.483   3.688   3.852
208 A   209 A   210 A   211 A   212 A   213 A   214 A   215 A                  
  3.882   4.506   4.521   4.526   4.540   4.549   4.565   4.578
216 A   217 A   218 A   219 A   220 A   221 A   222 A   223 A                  
  4.667   4.761   4.781   4.852   4.878   5.097   5.295
224 A   225 A   226 A   227 A   228 A   229 A   230 A                          

 Occupation and symmetry of molecular orbitals

 Point group: C1 (1 irreducible representation).

                           A     All 
 -------------------------------------
 All molecular orbitals:
  - Alpha                  230   230 
  - Beta                   230   230 
 -------------------------------------
 Alpha orbitals:
  - Frozen occupied        14    14  
  - Active occupied        33    33  
  - Active virtual         183   183 
  - Frozen virtual         0     0   
 -------------------------------------
 Beta orbitals:
  - Frozen occupied        14    14  
  - Active occupied        33    33  
  - Active virtual         183   183 
  - Frozen virtual         0     0   
 -------------------------------------

 Import integrals:   CPU 0.00 s  wall 0.00 s

 Import integrals:   CPU 97.62 s  wall 99.43 s

 MP2 amplitudes:   CPU 1.79 s  wall 1.79 s

Running a double precision version
           CCSD T amplitudes will be solved using DIIS.

           Start     Size      MaxIter   EConv     TConv     
           3         7         100       1.00e-06  1.00e-04  
 ------------------------------------------------------------------------------
           Energy (a.u.)   Ediff      Tdiff       Comment
 ------------------------------------------------------------------------------
          -537.75343184                           
     1    -537.73422050   1.92e-02   1.32e+00     Step took 04.58.
     2    -537.79789012   6.37e-02   1.94e-01     
     3    -537.79624915   1.64e-03   7.91e-02     
     4    -537.80228908   6.04e-03   2.35e-02     Switched to DIIS steps.
     5    -537.80492633   2.64e-03   1.94e-02     
     6    -537.80507710   1.51e-04   4.60e-03     
                                                                                                           9    -537.80501834   1.70e-06   3.14e-04     
    10    -537.80501809   2.49e-07   9.04e-05     
 ------------------------------------------------------------------------------
          -537.80501809                           CCSD T converged.

End of double precision
 SCF energy                 = -535.97478198
 MP2 energy                 = -537.75343184
 CCSD correlation energy    =   -1.83023611
 CCSD total energy          = -537.80501809

 CCSD  T1^2 = 0.0176  T2^2 = 0.7321  Leading amplitudes:

 Amplitude    Orbitals with energies
  0.0322       47 (A) A                  ->    99 (A) A                   
              -0.2339                          0.8852                     
  0.0322       47 (A) B                  ->    99 (A) B                   
              -0.2339                          0.8852                     
 -0.0283       45 (A) A                  ->    92 (A) A                   
              -0.3379                          0.8333                     
 -0.0283       45 (A) B                  ->    92 (A) B                   
              -0.3379                          0.8333                     

 Amplitude    Orbitals with energies
 -0.1002       47 (A) A      47 (A) B    ->    48 (A) A      48 (A) B     
              -0.2339       -0.2339            0.0456        0.0456       
  0.1002       47 (A) A      47 (A) B    ->    48 (A) B      48 (A) A     
              -0.2339       -0.2339            0.0456        0.0456       
  0.1002       47 (A) B      47 (A) A    ->    48 (A) A      48 (A) B     
              -0.2339       -0.2339            0.0456        0.0456       
 -0.1002       47 (A) B      47 (A) A    ->    48 (A) B      48 (A) A     
              -0.2339       -0.2339            0.0456        0.0456       

 Computing CCSD intermediates for later calculations in double precision
 Finished.

Running a double precision version
           CCSD Lambda amplitudes will be solved using DIIS.
           Start     Size      MaxIter   EConv     LConv     
           3         7         100       1.00e-06  1.00e-04  
 ------------------------------------------------------------------------------
            Enorm      Ldiff       Comment
 ------------------------------------------------------------------------------
     1     9.30e-02   7.04e-02     
     2     1.97e-02   8.16e-04     
     3     7.57e-03   3.86e-03     
     4     2.45e-03   1.24e-05     Switched to DIIS steps.
     5     8.57e-04   5.42e-04     
     6     3.29e-04   1.08e-04     
     7     1.04e-04   4.48e-05     
     8     4.49e-05   1.09e-05     
     9     1.76e-05   4.04e-06     
    10     8.63e-06   1.23e-06     
    11     3.81e-06   4.61e-07     
    12     1.45e-06   1.96e-07     
    13     5.83e-07   2.78e-08     
 ------------------------------------------------------------------------------
                                   CCSD Lambda converged.

 Computing density matrices in double precision...
 Computing density matrices... Done.
 Reference state properties
 Dipole moment (a.u.): 0.000181 (X 0.000000, Y 0.000000, Z -0.000181)
 R-squared (a.u.): 2866.214343 (XX 2262.118862, YY 539.444917, ZZ 64.650565)
 Gauge origin (a.u.): (0.000000, 0.000000, 0.000000)
 Angular momentum (a.u.) against gauge origin: 
 (X 0.000000i, Y 0.000000i, Z 0.000000i)
 Traces of the OPDMs: Tr(AA) 47.000000, Tr(BB) 47.000000
 Density matrix was written to a file for further analysis.

 CCSD calculation:   CPU 5898.81 s  wall 5900.34 s

 Total ccman2 time:   CPU 6004.91 s  wall 6008.32 s

 
 --------------------------------------------------------------
 
                    Orbital Energies (a.u.)
 --------------------------------------------------------------
 
 Alpha MOs
 -- Occupied --
-11.2437 -11.2434 -11.2430 -11.2423 -11.2420 -11.2416 -11.2367 -11.2367
-11.2363 -11.2363 -11.2355 -11.2355 -11.2347 -11.2347  -1.1822  -1.1492
 -1.0773  -1.0564  -1.0179  -1.0117  -0.9418  -0.8877  -0.8322  -0.8134
 -0.8106  -0.7466  -0.7058  -0.6826  -0.6405  -0.6375  -0.6234  -0.6185
 -0.5840  -0.5713  -0.5693  -0.5532  -0.5400  -0.5274  -0.4982  -0.4931
 -0.4781  -0.4724  -0.4038  -0.3971  -0.3379  -0.3128  -0.2339
 -- Virtual --
  0.0456   0.1250   0.1555   0.2026   0.2345   0.2430   0.2460   0.2540
  0.2866   0.2952   0.3150   0.3188   0.3267   0.3392   0.3632   0.3731
  0.4015   0.4307   0.4311   0.4643   0.4679   0.4860   0.4990   0.5067
  0.5333   0.5367   0.5746   0.6800   0.7017   0.7123   0.7124   0.7228
  0.7356   0.7356   0.7581   0.7644   0.7655   0.7933   0.7980   0.8025
  0.8091   0.8126   0.8172   0.8313   0.8333   0.8396   0.8406   0.8455
  0.8580   0.8601   0.8614   0.8852   0.8882   0.8928   0.9331   0.9461
  0.9848   0.9965   1.0763   1.0774   1.0816   1.1018   1.1080   1.1083
  1.1141   1.1214   1.1321   1.1373   1.1539   1.1561   1.1818   1.1928
  1.1995   1.2124   1.2173   1.2434   1.2552   1.2653   1.2694   1.3002
  1.3408   1.3663   1.3752   1.4282   1.4460   1.4548   1.4816   1.4901
  1.4984   1.5250   1.5418   1.5935   1.6290   1.6434   1.6627   1.6874
  1.7045   1.7121   1.7298   1.7518   1.7659   1.7666   1.7801   1.7816
  1.7843   1.8062   1.8075   1.8088   1.9997   2.0400   2.0967   2.1407
  2.1455   2.1475   2.1851   2.1866   2.1955   2.1970   2.2089   2.2303
  2.2468   2.2627   2.2661   2.2684   2.3085   2.3572   2.3577   2.3693
  2.4303   2.4337   2.4555   2.4839   2.4957   2.5100   2.5207   2.5573
  2.6154   2.6214   2.6267   2.6280   2.6620   2.6884   2.7005   2.7098
  2.7140   2.7353   2.7866   2.9182   2.9317   2.9769   2.9993   3.0103
  3.0132   3.0207   3.0635   3.1034   3.1116   3.1404   3.1605   3.1769
  3.2190   3.2821   3.2822   3.2948   3.4305   3.4830   3.6876   3.8521
  3.8817   4.5057   4.5209   4.5264   4.5405   4.5487   4.5646   4.5782
  4.6667   4.7608   4.7811   4.8525   4.8783   5.0966   5.2948
 --------------------------------------------------------------
 
          Ground-State Mulliken Net Atomic Charges

     Atom                 Charge (a.u.)
  ----------------------------------------
      1 C                     0.051943
      2 C                    -0.199744
      3 H                     0.173426
      4 C                    -0.176300
      5 H                     0.174666
      6 C                    -0.176300
      7 H                     0.174666
      8 C                    -0.199744
      9 H                     0.173426
     10 C                     0.051943
     11 C                    -0.221954
     12 H                     0.173972
     13 C                    -0.221954
     14 H                     0.173972
     15 C                     0.051943
     16 C                    -0.199744
     17 H                     0.173426
     18 C                    -0.176300
     19 H                     0.174666
     20 C                    -0.176300
     21 H                     0.174666
     22 C                    -0.199744
     23 H                     0.173426
     24 C                     0.051943
  ----------------------------------------
  Sum of atomic charges =     0.000000

 -----------------------------------------------------------------
                    Cartesian Multipole Moments
 -----------------------------------------------------------------
    Charge (ESU x 10^10)
                 0.0000
    Dipole Moment (Debye)
         X      -0.0000      Y      -0.0000      Z      -0.0005
       Tot       0.0005
    Quadrupole Moments (Debye-Ang)
        XX     -69.4550     XY      -0.0000     YY     -70.9785
        XZ      -0.0000     YZ      -0.0000     ZZ     -86.9572
    Octopole Moments (Debye-Ang^2)
       XXX       0.0000    XXY      -0.0000    XYY      -0.0000
       YYY       0.0000    XXZ      -0.0015    XYZ       0.0076
       YYZ      -0.0041    XZZ      -0.0000    YZZ      -0.0000
       ZZZ      -0.0006
    Hexadecapole Moments (Debye-Ang^3)
      XXXX   -2815.4830   XXXY       0.0000   XXYY    -597.5040
      XYYY      -0.0000   YYYY    -677.0753   XXXZ      -0.0006
      XXYZ      -0.0000   XYYZ      -0.0000   YYYZ      -0.0000
      XXZZ    -600.0066   XYZZ      -0.0000   YYZZ    -153.2162
      XZZZ      -0.0000   YZZZ      -0.0000   ZZZZ     -91.7856
 -----------------------------------------------------------------
 Total job time:  6082.61s(wall), 6076.53s(cpu) 
 Thu Jan 25 19:52:27 2024

        *************************************************************
        *                                                           *
        *  Thank you very much for using Q-Chem.  Have a nice day.  *
        *                                                           *
        *************************************************************


