                  Welcome to Q-Chem
     A Quantum Leap Into The Future Of Chemistry


 Q-Chem 6.0 (devel), Q-Chem, Inc., Pleasanton, CA (2022)

 E. Epifanovsky,  A. T. B. Gilbert,  Xintian Feng,  Joonho Lee,  Yuezhi Mao,  
 N. Mardirossian,  P. Pokhilko,  A. White,  M. Wormit,  M. P. Coons,  
 A. L. Dempwolff,  Zhengting Gan,  D. Hait,  P. R. Horn,  L. D. Jacobson,  
 I. Kaliman,  J. Kussmann,  A. W. Lange,  Ka Un Lao,  D. S. Levine,  Jie Liu,  
 S. C. McKenzie,  A. F. Morrison,  K. Nanda,  F. Plasser,  D. R. Rehn,  
 M. L. Vidal,  Zhi-Qiang You,  Ying Zhu,  B. Alam,  B. Albrecht,  
 A. Aldossary,  E. Alguire,  J. H. Andersen,  V. Athavale,  D. Barton,  
 K. Begam,  A. Behn,  N. Bellonzi,  Y. A. Bernard,  E. J. Berquist,  
 H. Burton,  A. Carreras,  K. Carter-Fenk,  Romit Chakraborty,  
 Chandrima Chakravarty,  Junhan Chen,  A. D. Chien,  K. D. Closser,  
 V. Cofer-Shabica,  L. Cunha,  S. Dasgupta,  Jia Deng,  M. de Wergifosse,  
 M. Diedenhofen,  Hainam Do,  S. Ehlert,  Po-Tung Fang,  S. Fatehi,  
 Qingguo Feng,  T. Friedhoff,  B. Ganoe,  J. Gayvert,  Qinghui Ge,  
 G. Gidofalvi,  M. Goldey,  J. Gomes,  C. Gonzalez-Espinoza,  S. Gulania,  
 A. Gunina,  J. A. Gyamfi,  M. W. D. Hanson-Heine,  P. H. P. Harbach,  
 A. W. Hauser,  M. F. Herbst,  M. Hernandez Vera,  M. Hodecker,  
 Z. C. Holden,  S. Houck,  Xunkun Huang,  Kerwin Hui,  B. C. Huynh,  
 K. Ikeda,  M. Ivanov,  Hyunjun Ji,  Zuxin Jin,  Hanjie Jiang,  B. Kaduk,  
 S. Kaehler,  R. Kang,  K. Khistyaev,  Jaehoon Kim,  Yongbin Kim,  
 P. Klunzinger,  Z. Koczor-Benda,  Joong Hoon Koh,  D. Kosenkov,  
 Saikiran Kotaru,  L. Koulias,  T. Kowalczyk,  C. M. Krauter,  K. Kue,  
 A. Kunitsa,  T. Kus,  A. Landau,  K. V. Lawler,  D. Lefrancois,  S. Lehtola,  
 Rain Li,  Shaozhi Li,  Yi-Pei Li,  Jiashu Liang,  M. Liebenthal,  
 Hung-Hsuan Lin,  You-Sheng Lin,  Fenglai Liu,  Kuan-Yu Liu,  
 M. Loipersberger,  A. Luenser,  C. Malbon,  A. Manjanath,  P. Manohar,  
 E. Mansoor,  S. F. Manzer,  Shan-Ping Mao,  A. V. Marenich,  T. Markovich,  
 S. Mason,  F. Matz,  S. A. Maurer,  P. F. McLaughlin,  M. F. S. J. Menger,  
 J.-M. Mewes,  S. A. Mewes,  P. Morgante,  Mohammad Mostafanejad,  
 J. W. Mullinax,  K. J. Oosterbaan,  G. Paran,  V. Parravicini,  
 Alexander C. Paul,  Suranjan K. Paul,  F. Pavosevic,  Zheng Pei,  S. Prager,  
 E. I. Proynov,  E. Ramos,  B. Rana,  A. E. Rask,  A. Rettig,  R. M. Richard,  
 F. Rob,  E. Rossomme,  T. Scheele,  M. Scheurer,  M. Schneider,  
 P. E. Schneider,  N. Sergueev,  S. M. Sharada,  Hengyuan Shen,  
 W. Skomorowski,  D. W. Small,  C. J. Stein,  Yingli Su,  Yu-Chuan Su,  
 E. J. Sundstrom,  Zhen Tao,  J. Thirman,  Hung-Yi Tsai,  T. Tsuchimochi,  
 N. M. Tubman,  C. Utku,  S. P. Veccham,  O. Vydrov,  J. Wenzel,  
 Jonathan Wong,  J. Witte,  A. Yamada,  Chou-Hsun Yang,  Kun Yao,  
 S. Yeganeh,  S. R. Yost,  A. Zech,  F. Zeller,  Igor Ying Zhang,  
 Xing Zhang,  Yu Zhang,  D. Zuev,  A. Aspuru-Guzik,  A. T. Bell,  
 N. A. Besley,  K. B. Bravaya,  B. R. Brooks,  D. Casanova,  Jeng-Da Chai,  
 Hsing-Ta Chen,  S. Coriani,  C. J. Cramer,  A. E. DePrince, III,  
 R. A. DiStasio Jr.,  A. Dreuw,  B. D. Dunietz,  T. R. Furlani,  
 W. A. Goddard III,  S. Grimme,  S. Hammes-Schiffer,  T. Head-Gordon,  
 W. J. Hehre,  Chao-Ping Hsu,  T.-C. Jagau,  Yousung Jung,  A. Klamt,  
 Jing Kong,  D. S. Lambrecht,  Xiangyuan Li,  WanZhen Liang,  N. J. Mayhall,  
 C. W. McCurdy,  J. B. Neaton,  T. Neudecker,  C. Ochsenfeld,  
 J. A. Parkhill,  R. Peverati,  V. A. Rassolov,  Haisheng Ren,  Yihan Shao,  
 L. V. Slipchenko,  R. P. Steele,  J. E. Subotnik,  A. J. W. Thom,  
 A. Tkatchenko,  D. G. Truhlar,  T. Van Voorhis,  Fan Wang,  
 T. A. Wesolowski,  K. B. Whaley,  H. L. Woodcock III,  P. M. Zimmerman,  
 S. Faraji,  P. M. W. Gill,  M. Head-Gordon,  J. M. Herbert,  A. I. Krylov

 Contributors to earlier versions of Q-Chem not listed above: 
 R. D. Adamson,  B. Austin,  R. Baer,  J. Baker,  G. J. O. Beran,  
 K. Brandhorst,  S. T. Brown,  E. F. C. Byrd,  Arup K. Chakraborty,  
 G. K. L. Chan,  Chun-Min Chang,  Yunqing Chen,  C.-L. Cheng,  
 Siu Hung Chien,  D. M. Chipman,  D. L. Crittenden,  H. Dachsel,  
 R. J. Doerksen,  A. D. Dutoi,  R. G. Edgar,  J. Fosso-Tande,  
 L. Fusti-Molnar,  D. Ghosh,  A. Ghysels,  A. Golubeva-Zadorozhnaya,  
 J. Gonthier,  M. S. Gordon,  S. R. Gwaltney,  G. Hawkins,  J. E. Herr,  
 A. Heyden,  S. Hirata,  E. G. Hohenstein,  G. Kedziora,  F. J. Keil,  
 C. Kelley,  Jihan Kim,  R. A. King,  R. Z. Khaliullin,  P. P. Korambath,  
 W. Kurlancheek,  A. Laurent,  A. M. Lee,  M. S. Lee,  S. V. Levchenko,  
 Ching Yeh Lin,  D. Liotard,  E. Livshits,  R. C. Lochan,  I. Lotan,  
 L. A. Martinez-Martinez,  P. E. Maslen,  N. Nair,  D. P. O'Neill,  
 D. Neuhauser,  E. Neuscamman,  C. M. Oana,  R. Olivares-Amaya,  R. Olson,  
 T. M. Perrine,  B. Peters,  P. A. Pieniazek,  A. Prociuk,  Y. M. Rhee,  
 J. Ritchie,  M. A. Rohrdanz,  E. Rosta,  N. J. Russ,  H. F. Schaefer III,  
 M. W. Schmidt,  N. E. Schultz,  S. Sharma,  N. Shenvi,  C. D. Sherrill,  
 A. C. Simmonett,  A. Sodt,  T. Stein,  D. Stuck,  K. S. Thanthiriwatte,  
 V. Vanovschi,  L. Vogt,  Tao Wang,  A. Warshel,  M. A. Watson,  
 C. F. Williams,  Q. Wu,  X. Xu,  Jun Yang,  W. Zhang,  Yan Zhao

   Please cite Q-Chem as follows:
  "Software for the frontiers of quantum chemistry:
   An overview of developments in the Q-Chem 5 package"
   J. Chem. Phys. 155, 084801 (2021)
   https://doi.org/10.1063/5.0055522 (open access)

 Q-Chem 6.0.1 for Intel X86 EM64T Linux

 Parts of Q-Chem use Armadillo 9.900.5 (Nocturnal Misbehaviour).
 http://arma.sourceforge.net/

 Q-Chem begins on Thu Jan 25 18:11:05 2024  

 Host: atlas-120
0

     Scratch files written to ./qchem19734//
 Processing $rem in /scratch/abel/SOFTWARE/qchem/config/preferences:
 Processing $rem in /dipc/acebg/.qchemrc:
 Core orbitals will be frozen

 Checking the input file for inconsistencies... 	...done.

--------------------------------------------------------------
User input:
--------------------------------------------------------------
$comment
 RAS-SF CALCULATION
$end

$molecule
 READ benzoquinone_singlet.molecule
$end

$rem
!**CALCULATION TYPE***     
JOBTYPE            sp    
BASIS              6-31G*
BASIS2             STO-3G

!***SCF REFERENCE***
INPUT_BOHR         TRUE
!SKIP_SCFMAN        FALSE
UNRESTRICTED       FALSE
!SCF_GUESS          core
!SCF_GUESS_MIX      FALSE
!SCF_GUESS_ALWAYS   FALSE
MAX_SCF_CYCLES     500
!SCF_CONVERGENCE    10
SCF_ALGORITHM      DIIS_GDM !DIIS,DM,DIIS_DM,GDM,DIIS_GDM,GD

!SYMMETRY           TRUE   !use of symmetry for calculating integrals
!SYM_IGNORE         FALSE  !turn off using symmetry
!SYM_TOL            5      !tolerance for determining point group
!USE_ABELIAN_SUBGROUP      !define to use abelian group

!THRESH             14
!SCF_FINAL_PRINT     1 !0,1,2,3

!****CCSD****
CORRELATION        CCSD
!CC_CONVERGENCE     6
!CC_MAX_ITER        200
CC_PRINT	   1
!CHOLESKY_TOL       3 !Toler. decomposition 2e integrals
CC_REF_PROP  	   1 !one-particle CCSD properties calculation
!CC_REF_PROP_TE	   0 !two-particle CCSD properties calculation
!CC_FNO_THRESH
!CC_BACKEND	   XM !Used to specify the computational back-end of CCMAN2.

!****MEMORY****
MEM_TOTAL          90000 !Default 2000 MB
MEM_STATIC         1000  !Default 64 MB
CC_MEMORY          72000

!**Molecular Properties and Analysis **                                                                                          
!POP_MULLIKEN       TRUE   !Run Mulliken population analysis
!LOWDIN_POPULATION  TRUE   !Run Löwdin population analysis
GUI                0       !Checkpoints generation
!STATE_ANALYSIS     TRUE

!**Wave function analysis**
!PLOTS = 0     ! Note: This can be omitted, default is 0
!NTO_PAIRS = 2 ! Note: This can be omitted, default is 2
!GUI 0
!MOLDEN_FORMAT      TRUE
!PRINT_ORBITALS     15
$end

!$plots
!   grid_points 100 100 100
!   grid_range  (-10,10) (-10,10) (-10,10)
!$end

--------------------------------------------------------------
 ----------------------------------------------------------------
             Standard Nuclear Orientation (Bohr)
    I     Atom           X                Y                Z
 ----------------------------------------------------------------
    1      O       0.0000000000    -0.0000000000     5.0873465738
    2      C       0.0000000000    -0.0000000000     2.6403222818
    3      C       2.3453549260    -0.0000000000     1.3021362826
    4      C      -2.3453549260     0.0000000000     1.3021362826
    5      C      -2.3309491506     0.0000000000    -1.2666211182
    6      C       2.3309491506    -0.0000000000    -1.2666211182
    7      C      -0.0000000000     0.0000000000    -2.7415020535
    8      O      -0.0000000000     0.0000000000    -5.0815679785
    9      H       4.0818321701    -0.0000000000     2.3803198434
   10      H      -4.0818321701     0.0000000000     2.3803198434
   11      H       4.0900977079    -0.0000000000    -2.3129858956
   12      H      -4.0900977079     0.0000000000    -2.3129858956
 ----------------------------------------------------------------
 Molecular Point Group                 C2v   NOp =  4
 Largest Abelian Subgroup              C2v   NOp =  4
 Nuclear Repulsion Energy =         323.04806769 hartrees
 There are       28 alpha and       28 beta electrons
 Requested basis set is 6-31G(d)
 There are 40 shells and 128 basis functions
 Total memory of 90000 MB is distributed as follows: 
   MEM_STATIC is set to 1000 MB
   QALLOC/CCMAN JOB total memory use is  89000 MB
 Warning: actual memory use might exceed 90000 MB

 Total QAlloc Memory Limit  90000 MB
 Mega-Array Size       978 MB
 MEM_STATIC part      1000 MB


                       Distance Matrix (Bohrs)
             O (  1)   C (  2)   C (  3)   C (  4)   C (  5)   C (  6)
   C (  2)  2.447024
   C (  3)  4.452921  2.700265
   C (  4)  4.452921  2.700265  4.690710
   C (  5)  6.768030  4.549454  5.335385  2.568798
   C (  6)  6.768030  4.549454  2.568798  5.335385  4.661898
   C (  7)  7.828849  5.381824  4.674580  4.674580  2.758369  2.758369
   O (  8) 10.168915  7.721890  6.800909  6.800909  4.470698  4.470698
   H (  9)  4.897892  4.090105  2.043975  6.516994  7.377258  4.045463
   H ( 10)  4.897892  4.090105  6.516994  2.043975  4.045463  7.377258
   H ( 11)  8.455402  6.423719  4.014130  7.381339  6.505745  2.046823
   H ( 12)  8.455402  6.423719  7.381339  4.014130  2.046823  6.505745
             C (  7)   O (  8)   H (  9)   H ( 10)   H ( 11)
   O (  8)  2.340066
   H (  9)  6.549383  8.505359
   H ( 10)  6.549383  8.505359  8.163664
   H ( 11)  4.112484  4.939023  4.693313  9.423776
   H ( 12)  4.112484  4.939023  9.423776  4.693313  8.180195
 
 A cutoff of  1.0D-14 yielded    776 shell pairs
 There are      8268 function pairs
 Smallest overlap matrix eigenvalue = 5.25E-04

 Scale SEOQF with 1.000000e-01/1.000000e+00/1.000000e-01

 Standard Electronic Orientation quadrupole field applied
 Nucleus-field energy     =    -0.0000000149 hartrees
 Requested basis set is STO-3G
 There are 20 shells and 44 basis functions
 A cutoff of  1.0D-14 yielded    188 shell pairs
 There are      1010 function pairs
 Smallest overlap matrix eigenvalue = 1.78E-01
 Guess from superposition of atomic densities
 Warning:  Energy on first SCF cycle will be non-variational
 SAD guess density has 56.000000 electrons
 A restricted Hartree-Fock SCF calculation will be
 performed using Pulay DIIS + Geometric Direct Minimization
 SCF converges when RMS gradient is below 1.0E-04
 ---------------------------------------
  Cycle       Energy         DIIS Error
 ---------------------------------------
    1    -374.6037996362      1.78E-01
    2    -373.9658043378      3.10E-02
    3    -374.1226326585      2.82E-02
    4    -374.3244675225      2.62E-03 Done DIIS. Switching to GDM
    5    -374.3283093365      6.78E-03 Normal BFGS step
    6    -374.3286882419      5.71E-03 Normal BFGS step
    7    -374.3288525107      1.49E-03 Normal BFGS step
    8    -374.3288659129      6.38E-04 Normal BFGS step
    9    -374.3288670398      3.56E-04 Normal BFGS step
   10    -374.3288672674      5.13E-05 Convergence criterion met
 ---------------------------------------
 SCF time:  CPU 0.15 s  wall 0.33 s
 SCF   energy in the small basis set = -374.32886727
 Total energy in the small basis set = -374.32886727
 ----------------------------------------------------
  Cycle       Energy    
 ----------------------------------------------------
    1     -44.3493564132     -4.43E+01
 A restricted Hartree-Fock SCF calculation will be
 performed using Pulay DIIS + Geometric Direct Minimization
 SCF converges when RMS gradient is below 1.0E-08
 ---------------------------------------
  Cycle       Energy         DIIS Error
 ---------------------------------------
    1    -379.0187702451      1.34E-02
    2    -379.1336573247      7.06E-03 Done DIIS. Switching to GDM
    3    -379.1951865907      8.24E-02 Normal BFGS step
    4    -379.1983275391      5.04E-02 Normal BFGS step
    5    -379.2098497287      4.28E-03 Normal BFGS step
    6    -379.2099775955      2.46E-03 Normal BFGS step
    7    -379.2100060033      6.62E-04 Normal BFGS step
    8    -379.2100086627      3.90E-04 Normal BFGS step
    9    -379.2100096299      1.58E-04 Normal BFGS step
   10    -379.2100097801      3.20E-05 Normal BFGS step
   11    -379.2100097885      1.38E-05 Normal BFGS step
   12    -379.2100097899      4.23E-06 Normal BFGS step
   13    -379.2100097902      1.64E-06 Normal BFGS step
   14    -379.2100097902      5.03E-07 Normal BFGS step
   15    -379.2100097902      2.26E-07 Normal BFGS step
   16    -379.2100097902      8.63E-08 Normal BFGS step
   GDM::WARNING energy changes are now smaller than effective accuracy.
   GDM::        calculation will continue, but THRESH should be increased
   GDM::        or SCF_CONVERGENCE decreased.
   GDM::        effective_thresh =   2.800000000000000E-010
   17    -379.2100097902      9.47E-09 Convergence criterion met
 ---------------------------------------
 SCF time:  CPU 10.59 s  wall 11.61 s
 SCF   energy in the final basis set = -379.21000979
 Total energy in the final basis set = -379.21000979


 ------------------------------------------------------------------------------

   CCMAN2: suite of methods based on coupled cluster
           and equation of motion theories.

   Components:
   * libvmm-1.3-trunk
     by Evgeny Epifanovsky, Ilya Kaliman.
   * libtensor-2.5-trunk
     by Evgeny Epifanovsky, Michael Wormit, Dmitry Zuev, Sam Manzer, 
        Ilya Kaliman.
   * libcc-2.5-trunk
     by Evgeny Epifanovsky, Arik Landau, Tomasz Kus, Kirill Khistyaev, 
        Dmitry Zuev, Prashant Manohar, Xintian Feng, Anna Krylov, 
        Matthew Goldey, Alec White, Thomas Jagau, Kaushik Nanda, 
        Anastasia Gunina, Alexander Kunitsa, Joonho Lee.

   CCMAN original authors:
   Anna I. Krylov, C. David Sherrill, Steven R. Gwaltney,
   Edward F. C. Byrd (2000)
   Sergey V. Levchenko, Lyudmila V. Slipchenko, Tao Wang,
   Ana-Maria C. Cristian (2003)
   Piotr A. Pieniazek, C. Melania Oana, Evgeny Epifanovsky (2007)
   Prashant Manohar (2009)

 ------------------------------------------------------------------------------


 Allocating and initializing 72000MB of RAM...
 Calculation will run on 1 core.

 
 Alpha MOs, Restricted
 -- Occupied --                  
-20.592 -20.583 -11.366 -11.360 -11.288 -11.288 -11.286 -11.286
  1 A1    2 A1    3 A1    4 A1    1 B1    5 A1    2 B1    6 A1                 
 -1.404  -1.364  -1.171  -1.077  -0.986  -0.883  -0.835  -0.714
  7 A1    8 A1    9 A1    3 B1   10 A1    4 B1   11 A1    5 B1                 
 -0.713  -0.679  -0.642  -0.632  -0.590  -0.583  -0.579  -0.534
 12 A1   13 A1    6 B1   14 A1    1 B2   15 A1    7 B1    2 B2                 
 -0.462  -0.453  -0.407  -0.398
  8 B1    9 B1    1 A2    3 B2                                                 
 -- Virtual --                   
 -0.012   0.122   0.186   0.224   0.261   0.286   0.321   0.348
  4 B2    2 A2    5 B2   16 A1   10 B1   17 A1   11 B1    6 B2                 
  0.366   0.393   0.431   0.465   0.529   0.543   0.650   0.676
 18 A1   19 A1   20 A1   12 B1   13 B1   21 A1   22 A1   23 A1                 
  0.692   0.694   0.730   0.754   0.776   0.794   0.800   0.854
 14 B1    7 B2   15 B1   24 A1    3 A2   16 B1    8 B2   25 A1                 
  0.865   0.868   0.894   0.915   0.964   0.975   1.016   1.082
  9 B2    4 A2   26 A1   17 B1   10 B2   27 A1   28 A1   18 B1                 
  1.088   1.090   1.106   1.130   1.150   1.181   1.190   1.272
 19 B1   29 A1   30 A1   31 A1   20 B1   32 A1   21 B1   33 A1                 
  1.275   1.305   1.308   1.362   1.373   1.417   1.438   1.478
 11 B2   12 B2   22 B1   23 B1   34 A1   24 B1    5 A2   25 B1                 
  1.518   1.608   1.661   1.667   1.671   1.687   1.727   1.773
 35 A1   13 B2   14 B2    6 A2   26 B1   15 B2    7 A2   36 A1                 
  1.925   1.973   2.055   2.071   2.097   2.108   2.140   2.158
 37 A1   27 B1    8 A2   38 A1   39 A1    9 A2   40 A1   28 B1                 
  2.175   2.180   2.198   2.246   2.320   2.335   2.357   2.362
 41 A1   16 B2   42 A1   29 B1   43 A1   30 B1   17 B2   44 A1                 
  2.423   2.426   2.561   2.566   2.614   2.626   2.795   2.852
 10 A2   45 A1   11 A2   31 B1   18 B2   32 B1   46 A1   19 B2                 
  2.908   2.915   2.925   2.942   3.030   3.068   3.145   3.287
 33 B1   20 B2   12 A2   47 A1   48 A1   49 A1   34 B1   50 A1                 
  3.312   3.339   3.538   3.701   4.306   4.336   4.494   4.501
 35 B1   51 A1   36 B1   52 A1   53 A1   54 A1   55 A1   37 B1                 
  4.693   4.745   4.860   5.183
 38 B1   56 A1   57 A1   58 A1                                                 
 
 Beta MOs, Restricted
 -- Occupied --                  
-20.592 -20.583 -11.366 -11.360 -11.288 -11.288 -11.286 -11.286
  1 A1    2 A1    3 A1    4 A1    1 B1    5 A1    2 B1    6 A1                 
 -1.404  -1.364  -1.171  -1.077  -0.986  -0.883  -0.835  -0.714
  7 A1    8 A1    9 A1    3 B1   10 A1    4 B1   11 A1    5 B1                 
 -0.713  -0.679  -0.642  -0.632  -0.590  -0.583  -0.579  -0.534
 12 A1   13 A1    6 B1   14 A1    1 B2   15 A1    7 B1    2 B2                 
 -0.462  -0.453  -0.407  -0.398
  8 B1    9 B1    1 A2    3 B2                                                 
 -- Virtual --                   
 -0.012   0.122   0.186   0.224   0.261   0.286   0.321   0.348
  4 B2    2 A2    5 B2   16 A1   10 B1   17 A1   11 B1    6 B2                 
  0.366   0.393   0.431   0.465   0.529   0.543   0.650   0.676
 18 A1   19 A1   20 A1   12 B1   13 B1   21 A1   22 A1   23 A1                 
  0.692   0.694   0.730   0.754   0.776   0.794   0.800   0.854
 14 B1    7 B2   15 B1   24 A1    3 A2   16 B1    8 B2   25 A1                 
  0.865   0.868   0.894   0.915   0.964   0.975   1.016   1.082
  9 B2    4 A2   26 A1   17 B1   10 B2   27 A1   28 A1   18 B1                 
  1.088   1.090   1.106   1.130   1.150   1.181   1.190   1.272
 19 B1   29 A1   30 A1   31 A1   20 B1   32 A1   21 B1   33 A1                 
  1.275   1.305   1.308   1.362   1.373   1.417   1.438   1.478
 11 B2   12 B2   22 B1   23 B1   34 A1   24 B1    5 A2   25 B1                 
  1.518   1.608   1.661   1.667   1.671   1.687   1.727   1.773
 35 A1   13 B2   14 B2    6 A2   26 B1   15 B2    7 A2   36 A1                 
  1.925   1.973   2.055   2.071   2.097   2.108   2.140   2.158
 37 A1   27 B1    8 A2   38 A1   39 A1    9 A2   40 A1   28 B1                 
  2.175   2.180   2.198   2.246   2.320   2.335   2.357   2.362
 41 A1   16 B2   42 A1   29 B1   43 A1   30 B1   17 B2   44 A1                 
  2.423   2.426   2.561   2.566   2.614   2.626   2.795   2.852
 10 A2   45 A1   11 A2   31 B1   18 B2   32 B1   46 A1   19 B2                 
  2.908   2.915   2.925   2.942   3.030   3.068   3.145   3.287
 33 B1   20 B2   12 A2   47 A1   48 A1   49 A1   34 B1   50 A1                 
  3.312   3.339   3.538   3.701   4.306   4.336   4.494   4.501
 35 B1   51 A1   36 B1   52 A1   53 A1   54 A1   55 A1   37 B1                 
  4.693   4.745   4.860   5.183
 38 B1   56 A1   57 A1   58 A1                                                 

 Occupation and symmetry of molecular orbitals

 Point group: C2v (4 irreducible representations).

                           A1   A2   B1   B2    All 
 ----------------------------------------------------
 All molecular orbitals:
  - Alpha                  58   12   38   20    128 
  - Beta                   58   12   38   20    128 
 ----------------------------------------------------
 Alpha orbitals:
  - Frozen occupied        6    0    2    0     8   
  - Active occupied        9    1    7    3     20  
  - Active virtual         43   11   29   17    100 
  - Frozen virtual         0    0    0    0     0   
 ----------------------------------------------------
 Beta orbitals:
  - Frozen occupied        6    0    2    0     8   
  - Active occupied        9    1    7    3     20  
  - Active virtual         43   11   29   17    100 
  - Frozen virtual         0    0    0    0     0   
 ----------------------------------------------------

 Import integrals:   CPU 0.00 s  wall 0.00 s

 Import integrals:   CPU 8.55 s  wall 9.24 s

 MP2 amplitudes:   CPU 1.02 s  wall 1.05 s

Running a double precision version
           CCSD T amplitudes will be solved using DIIS.

           Start     Size      MaxIter   EConv     TConv     
           3         7         100       1.00e-06  1.00e-04  
 ------------------------------------------------------------------------------
           Energy (a.u.)   Ediff      Tdiff       Comment
 ------------------------------------------------------------------------------
          -380.31874431                           
     1    -380.30188942   1.69e-02   9.97e-01     
     2    -380.34444660   4.26e-02   1.28e-01     
     3    -380.34122504   3.22e-03   6.10e-02     
     4    -380.34628226   5.06e-03   2.92e-02     Switched to DIIS steps.
     5    -380.34837373   2.09e-03   1.79e-02     
     6    -380.34858442   2.11e-04   5.56e-03     
     7    -380.34859024   5.81e-06   2.31e-03     
     8    -380.34857370   1.65e-05   9.88e-04     
     9    -380.34857254   1.15e-06   3.90e-04     
    10    -380.34857427   1.72e-06   1.64e-04     
    11    -380.34857634   2.07e-06   9.23e-05     
    12    -380.34857584   4.94e-07   2.71e-05     
 ------------------------------------------------------------------------------
          -380.34857584                           CCSD T converged.

End of double precision
 SCF energy                 = -379.21000979
 MP2 energy                 = -380.31874431
 CCSD correlation energy    =   -1.13856605
 CCSD total energy          = -380.34857584

 CCSD  T1^2 = 0.0236  T2^2 = 0.4337  Leading amplitudes:

 Amplitude    Orbitals with energies
  0.0669       2 (B2) A                  ->    4 (B2) A                   
              -0.5342                         -0.0118                     
  0.0669       2 (B2) B                  ->    4 (B2) B                   
              -0.5342                         -0.0118                     
  0.0303       1 (B2) A                  ->    5 (B2) A                   
              -0.5900                          0.1858                     
  0.0303       1 (B2) B                  ->    5 (B2) B                   
              -0.5900                          0.1858                     

 Amplitude    Orbitals with energies
 -0.1173       3 (B2) A      3 (B2) B    ->    4 (B2) A      4 (B2) B     
              -0.3980       -0.3980           -0.0118       -0.0118       
  0.1173       3 (B2) A      3 (B2) B    ->    4 (B2) B      4 (B2) A     
              -0.3980       -0.3980           -0.0118       -0.0118       
  0.1173       3 (B2) B      3 (B2) A    ->    4 (B2) A      4 (B2) B     
              -0.3980       -0.3980           -0.0118       -0.0118       
 -0.1173       3 (B2) B      3 (B2) A    ->    4 (B2) B      4 (B2) A     
              -0.3980       -0.3980           -0.0118       -0.0118       

 Computing CCSD intermediates for later calculations in double precision
 Finished.

Running a double precision version
           CCSD Lambda amplitudes will be solved using DIIS.
           Start     Size      MaxIter   EConv     LConv     
           3         7         100       1.00e-06  1.00e-04  
 ------------------------------------------------------------------------------
            Enorm      Ldiff       Comment
 ------------------------------------------------------------------------------
     1     9.56e-02   5.52e-02     
     2     3.25e-02   9.38e-03     
     3     1.55e-02   8.89e-04     
     4     6.07e-03   2.04e-03     Switched to DIIS steps.
     5     2.38e-03   1.17e-03     
     6     1.17e-03   4.75e-04     
     7     5.19e-04   1.45e-04     
     8     1.93e-04   6.87e-05     
     9     8.06e-05   8.84e-06     
    10     3.29e-05   1.92e-06     
    11     1.38e-05   1.51e-06     
    12     6.20e-06   5.72e-08     
    13     2.36e-06   1.62e-07     
    14     9.86e-07   7.75e-08     
 ------------------------------------------------------------------------------
                                   CCSD Lambda converged.

 Computing density matrices in double precision...
 Computing density matrices... Done.
 Reference state properties
 Dipole moment (a.u.): 0.066881 (X 0.000000, Y 0.000000, Z -0.066881)
 R-squared (a.u.): 867.314714 (XX 225.791804, YY 33.467704, ZZ 608.055206)
 Gauge origin (a.u.): (0.000000, 0.000000, 0.000000)
 Angular momentum (a.u.) against gauge origin: 
 (X 0.000000i, Y 0.000000i, Z 0.000000i)
 Traces of the OPDMs: Tr(AA) 28.000000, Tr(BB) 28.000000
 Density matrix was written to a file for further analysis.

 CCSD calculation:   CPU 67.52 s  wall 69.38 s

 Total ccman2 time:   CPU 79.39 s  wall 82.16 s

 
 --------------------------------------------------------------
             Orbital Energies (a.u.) and Symmetries
 --------------------------------------------------------------
 
 Alpha MOs, Restricted
 -- Occupied --                  
-20.592 -20.583 -11.366 -11.360 -11.288 -11.288 -11.286 -11.286
  1 A1    2 A1    3 A1    4 A1    1 B1    5 A1    2 B1    6 A1                 
 -1.404  -1.364  -1.171  -1.077  -0.986  -0.883  -0.835  -0.714
  7 A1    8 A1    9 A1    3 B1   10 A1    4 B1   11 A1    5 B1                 
 -0.713  -0.679  -0.642  -0.632  -0.590  -0.583  -0.579  -0.534
 12 A1   13 A1    6 B1   14 A1    1 B2   15 A1    7 B1    2 B2                 
 -0.462  -0.453  -0.407  -0.398
  8 B1    9 B1    1 A2    3 B2                                                 
 -- Virtual --                   
 -0.012   0.122   0.186   0.224   0.261   0.286   0.321   0.348
  4 B2    2 A2    5 B2   16 A1   10 B1   17 A1   11 B1    6 B2                 
  0.366   0.393   0.431   0.465   0.529   0.543   0.650   0.676
 18 A1   19 A1   20 A1   12 B1   13 B1   21 A1   22 A1   23 A1                 
  0.692   0.694   0.730   0.754   0.776   0.794   0.800   0.854
 14 B1    7 B2   15 B1   24 A1    3 A2   16 B1    8 B2   25 A1                 
  0.865   0.868   0.894   0.915   0.964   0.975   1.016   1.082
  9 B2    4 A2   26 A1   17 B1   10 B2   27 A1   28 A1   18 B1                 
  1.088   1.090   1.106   1.130   1.150   1.181   1.190   1.272
 19 B1   29 A1   30 A1   31 A1   20 B1   32 A1   21 B1   33 A1                 
  1.275   1.305   1.308   1.362   1.373   1.417   1.438   1.478
 11 B2   12 B2   22 B1   23 B1   34 A1   24 B1    5 A2   25 B1                 
  1.518   1.608   1.661   1.667   1.671   1.687   1.727   1.773
 35 A1   13 B2   14 B2    6 A2   26 B1   15 B2    7 A2   36 A1                 
  1.925   1.973   2.055   2.071   2.097   2.108   2.140   2.158
 37 A1   27 B1    8 A2   38 A1   39 A1    9 A2   40 A1   28 B1                 
  2.175   2.180   2.198   2.246   2.320   2.335   2.357   2.362
 41 A1   16 B2   42 A1   29 B1   43 A1   30 B1   17 B2   44 A1                 
  2.423   2.426   2.561   2.566   2.614   2.626   2.795   2.852
 10 A2   45 A1   11 A2   31 B1   18 B2   32 B1   46 A1   19 B2                 
  2.908   2.915   2.925   2.942   3.030   3.068   3.145   3.287
 33 B1   20 B2   12 A2   47 A1   48 A1   49 A1   34 B1   50 A1                 
  3.312   3.339   3.538   3.701   4.306   4.336   4.494   4.501
 35 B1   51 A1   36 B1   52 A1   53 A1   54 A1   55 A1   37 B1                 
  4.693   4.745   4.860   5.183
 38 B1   56 A1   57 A1   58 A1                                                 
 
 Beta MOs, Restricted
 -- Occupied --                  
-20.592 -20.583 -11.366 -11.360 -11.288 -11.288 -11.286 -11.286
  1 A1    2 A1    3 A1    4 A1    1 B1    5 A1    2 B1    6 A1                 
 -1.404  -1.364  -1.171  -1.077  -0.986  -0.883  -0.835  -0.714
  7 A1    8 A1    9 A1    3 B1   10 A1    4 B1   11 A1    5 B1                 
 -0.713  -0.679  -0.642  -0.632  -0.590  -0.583  -0.579  -0.534
 12 A1   13 A1    6 B1   14 A1    1 B2   15 A1    7 B1    2 B2                 
 -0.462  -0.453  -0.407  -0.398
  8 B1    9 B1    1 A2    3 B2                                                 
 -- Virtual --                   
 -0.012   0.122   0.186   0.224   0.261   0.286   0.321   0.348
  4 B2    2 A2    5 B2   16 A1   10 B1   17 A1   11 B1    6 B2                 
  0.366   0.393   0.431   0.465   0.529   0.543   0.650   0.676
 18 A1   19 A1   20 A1   12 B1   13 B1   21 A1   22 A1   23 A1                 
  0.692   0.694   0.730   0.754   0.776   0.794   0.800   0.854
 14 B1    7 B2   15 B1   24 A1    3 A2   16 B1    8 B2   25 A1                 
  0.865   0.868   0.894   0.915   0.964   0.975   1.016   1.082
  9 B2    4 A2   26 A1   17 B1   10 B2   27 A1   28 A1   18 B1                 
  1.088   1.090   1.106   1.130   1.150   1.181   1.190   1.272
 19 B1   29 A1   30 A1   31 A1   20 B1   32 A1   21 B1   33 A1                 
  1.275   1.305   1.308   1.362   1.373   1.417   1.438   1.478
 11 B2   12 B2   22 B1   23 B1   34 A1   24 B1    5 A2   25 B1                 
  1.518   1.608   1.661   1.667   1.671   1.687   1.727   1.773
 35 A1   13 B2   14 B2    6 A2   26 B1   15 B2    7 A2   36 A1                 
  1.925   1.973   2.055   2.071   2.097   2.108   2.140   2.158
 37 A1   27 B1    8 A2   38 A1   39 A1    9 A2   40 A1   28 B1                 
  2.175   2.180   2.198   2.246   2.320   2.335   2.357   2.362
 41 A1   16 B2   42 A1   29 B1   43 A1   30 B1   17 B2   44 A1                 
  2.423   2.426   2.561   2.566   2.614   2.626   2.795   2.852
 10 A2   45 A1   11 A2   31 B1   18 B2   32 B1   46 A1   19 B2                 
  2.908   2.915   2.925   2.942   3.030   3.068   3.145   3.287
 33 B1   20 B2   12 A2   47 A1   48 A1   49 A1   34 B1   50 A1                 
  3.312   3.339   3.538   3.701   4.306   4.336   4.494   4.501
 35 B1   51 A1   36 B1   52 A1   53 A1   54 A1   55 A1   37 B1                 
  4.693   4.745   4.860   5.183
 38 B1   56 A1   57 A1   58 A1                                                 
 --------------------------------------------------------------
 
          Ground-State Mulliken Net Atomic Charges

     Atom                 Charge (a.u.)
  ----------------------------------------
      1 O                    -0.450739
      2 C                     0.384075
      3 C                    -0.180646
      4 C                    -0.180646
      5 C                    -0.218843
      6 C                    -0.218843
      7 C                     0.416973
      8 O                    -0.424513
      9 H                     0.223669
     10 H                     0.223669
     11 H                     0.212922
     12 H                     0.212922
  ----------------------------------------
  Sum of atomic charges =     0.000000

 -----------------------------------------------------------------
                    Cartesian Multipole Moments
 -----------------------------------------------------------------
    Charge (ESU x 10^10)
                -0.0000
    Dipole Moment (Debye)
         X      -0.0000      Y       0.0000      Z      -0.1700
       Tot       0.1700
    Quadrupole Moments (Debye-Ang)
        XX     -37.3962     XY      -0.0000     YY     -45.0152
        XZ      -0.0000     YZ       0.0000     ZZ     -61.7030
    Octopole Moments (Debye-Ang^2)
       XXX      -0.0000    XXY      -0.0000    XYY      -0.0000
       YYY       0.0000    XXZ       0.6761    XYZ       0.0000
       YYZ      -0.2088    XZZ       0.0000    YZZ       0.0000
       ZZZ      -1.6893
    Hexadecapole Moments (Debye-Ang^3)
      XXXX    -262.8202   XXXY      -0.0000   XXYY     -63.1036
      XYYY      -0.0000   YYYY     -42.2985   XXXZ       0.0000
      XXYZ      -0.0000   XYYZ      -0.0000   YYYZ      -0.0000
      XXZZ    -158.0015   XYZZ      -0.0000   YYZZ    -122.5629
      XZZZ      -0.0000   YZZZ       0.0000   ZZZZ    -899.9881
 -----------------------------------------------------------------
 Total job time:  117.95s(wall), 112.46s(cpu) 
 Thu Jan 25 18:13:03 2024

        *************************************************************
        *                                                           *
        *  Thank you very much for using Q-Chem.  Have a nice day.  *
        *                                                           *
        *************************************************************


