                  Welcome to Q-Chem
     A Quantum Leap Into The Future Of Chemistry


 Q-Chem 6.0 (devel), Q-Chem, Inc., Pleasanton, CA (2022)

 E. Epifanovsky,  A. T. B. Gilbert,  Xintian Feng,  Joonho Lee,  Yuezhi Mao,  
 N. Mardirossian,  P. Pokhilko,  A. White,  M. Wormit,  M. P. Coons,  
 A. L. Dempwolff,  Zhengting Gan,  D. Hait,  P. R. Horn,  L. D. Jacobson,  
 I. Kaliman,  J. Kussmann,  A. W. Lange,  Ka Un Lao,  D. S. Levine,  Jie Liu,  
 S. C. McKenzie,  A. F. Morrison,  K. Nanda,  F. Plasser,  D. R. Rehn,  
 M. L. Vidal,  Zhi-Qiang You,  Ying Zhu,  B. Alam,  B. Albrecht,  
 A. Aldossary,  E. Alguire,  J. H. Andersen,  V. Athavale,  D. Barton,  
 K. Begam,  A. Behn,  N. Bellonzi,  Y. A. Bernard,  E. J. Berquist,  
 H. Burton,  A. Carreras,  K. Carter-Fenk,  Romit Chakraborty,  
 Chandrima Chakravarty,  Junhan Chen,  A. D. Chien,  K. D. Closser,  
 V. Cofer-Shabica,  L. Cunha,  S. Dasgupta,  Jia Deng,  M. de Wergifosse,  
 M. Diedenhofen,  Hainam Do,  S. Ehlert,  Po-Tung Fang,  S. Fatehi,  
 Qingguo Feng,  T. Friedhoff,  B. Ganoe,  J. Gayvert,  Qinghui Ge,  
 G. Gidofalvi,  M. Goldey,  J. Gomes,  C. Gonzalez-Espinoza,  S. Gulania,  
 A. Gunina,  J. A. Gyamfi,  M. W. D. Hanson-Heine,  P. H. P. Harbach,  
 A. W. Hauser,  M. F. Herbst,  M. Hernandez Vera,  M. Hodecker,  
 Z. C. Holden,  S. Houck,  Xunkun Huang,  Kerwin Hui,  B. C. Huynh,  
 K. Ikeda,  M. Ivanov,  Hyunjun Ji,  Zuxin Jin,  Hanjie Jiang,  B. Kaduk,  
 S. Kaehler,  R. Kang,  K. Khistyaev,  Jaehoon Kim,  Yongbin Kim,  
 P. Klunzinger,  Z. Koczor-Benda,  Joong Hoon Koh,  D. Kosenkov,  
 Saikiran Kotaru,  L. Koulias,  T. Kowalczyk,  C. M. Krauter,  K. Kue,  
 A. Kunitsa,  T. Kus,  A. Landau,  K. V. Lawler,  D. Lefrancois,  S. Lehtola,  
 Rain Li,  Shaozhi Li,  Yi-Pei Li,  Jiashu Liang,  M. Liebenthal,  
 Hung-Hsuan Lin,  You-Sheng Lin,  Fenglai Liu,  Kuan-Yu Liu,  
 M. Loipersberger,  A. Luenser,  C. Malbon,  A. Manjanath,  P. Manohar,  
 E. Mansoor,  S. F. Manzer,  Shan-Ping Mao,  A. V. Marenich,  T. Markovich,  
 S. Mason,  F. Matz,  S. A. Maurer,  P. F. McLaughlin,  M. F. S. J. Menger,  
 J.-M. Mewes,  S. A. Mewes,  P. Morgante,  Mohammad Mostafanejad,  
 J. W. Mullinax,  K. J. Oosterbaan,  G. Paran,  V. Parravicini,  
 Alexander C. Paul,  Suranjan K. Paul,  F. Pavosevic,  Zheng Pei,  S. Prager,  
 E. I. Proynov,  E. Ramos,  B. Rana,  A. E. Rask,  A. Rettig,  R. M. Richard,  
 F. Rob,  E. Rossomme,  T. Scheele,  M. Scheurer,  M. Schneider,  
 P. E. Schneider,  N. Sergueev,  S. M. Sharada,  Hengyuan Shen,  
 W. Skomorowski,  D. W. Small,  C. J. Stein,  Yingli Su,  Yu-Chuan Su,  
 E. J. Sundstrom,  Zhen Tao,  J. Thirman,  Hung-Yi Tsai,  T. Tsuchimochi,  
 N. M. Tubman,  C. Utku,  S. P. Veccham,  O. Vydrov,  J. Wenzel,  
 Jonathan Wong,  J. Witte,  A. Yamada,  Chou-Hsun Yang,  Kun Yao,  
 S. Yeganeh,  S. R. Yost,  A. Zech,  F. Zeller,  Igor Ying Zhang,  
 Xing Zhang,  Yu Zhang,  D. Zuev,  A. Aspuru-Guzik,  A. T. Bell,  
 N. A. Besley,  K. B. Bravaya,  B. R. Brooks,  D. Casanova,  Jeng-Da Chai,  
 Hsing-Ta Chen,  S. Coriani,  C. J. Cramer,  A. E. DePrince, III,  
 R. A. DiStasio Jr.,  A. Dreuw,  B. D. Dunietz,  T. R. Furlani,  
 W. A. Goddard III,  S. Grimme,  S. Hammes-Schiffer,  T. Head-Gordon,  
 W. J. Hehre,  Chao-Ping Hsu,  T.-C. Jagau,  Yousung Jung,  A. Klamt,  
 Jing Kong,  D. S. Lambrecht,  Xiangyuan Li,  WanZhen Liang,  N. J. Mayhall,  
 C. W. McCurdy,  J. B. Neaton,  T. Neudecker,  C. Ochsenfeld,  
 J. A. Parkhill,  R. Peverati,  V. A. Rassolov,  Haisheng Ren,  Yihan Shao,  
 L. V. Slipchenko,  R. P. Steele,  J. E. Subotnik,  A. J. W. Thom,  
 A. Tkatchenko,  D. G. Truhlar,  T. Van Voorhis,  Fan Wang,  
 T. A. Wesolowski,  K. B. Whaley,  H. L. Woodcock III,  P. M. Zimmerman,  
 S. Faraji,  P. M. W. Gill,  M. Head-Gordon,  J. M. Herbert,  A. I. Krylov

 Contributors to earlier versions of Q-Chem not listed above: 
 R. D. Adamson,  B. Austin,  R. Baer,  J. Baker,  G. J. O. Beran,  
 K. Brandhorst,  S. T. Brown,  E. F. C. Byrd,  Arup K. Chakraborty,  
 G. K. L. Chan,  Chun-Min Chang,  Yunqing Chen,  C.-L. Cheng,  
 Siu Hung Chien,  D. M. Chipman,  D. L. Crittenden,  H. Dachsel,  
 R. J. Doerksen,  A. D. Dutoi,  R. G. Edgar,  J. Fosso-Tande,  
 L. Fusti-Molnar,  D. Ghosh,  A. Ghysels,  A. Golubeva-Zadorozhnaya,  
 J. Gonthier,  M. S. Gordon,  S. R. Gwaltney,  G. Hawkins,  J. E. Herr,  
 A. Heyden,  S. Hirata,  E. G. Hohenstein,  G. Kedziora,  F. J. Keil,  
 C. Kelley,  Jihan Kim,  R. A. King,  R. Z. Khaliullin,  P. P. Korambath,  
 W. Kurlancheek,  A. Laurent,  A. M. Lee,  M. S. Lee,  S. V. Levchenko,  
 Ching Yeh Lin,  D. Liotard,  E. Livshits,  R. C. Lochan,  I. Lotan,  
 L. A. Martinez-Martinez,  P. E. Maslen,  N. Nair,  D. P. O'Neill,  
 D. Neuhauser,  E. Neuscamman,  C. M. Oana,  R. Olivares-Amaya,  R. Olson,  
 T. M. Perrine,  B. Peters,  P. A. Pieniazek,  A. Prociuk,  Y. M. Rhee,  
 J. Ritchie,  M. A. Rohrdanz,  E. Rosta,  N. J. Russ,  H. F. Schaefer III,  
 M. W. Schmidt,  N. E. Schultz,  S. Sharma,  N. Shenvi,  C. D. Sherrill,  
 A. C. Simmonett,  A. Sodt,  T. Stein,  D. Stuck,  K. S. Thanthiriwatte,  
 V. Vanovschi,  L. Vogt,  Tao Wang,  A. Warshel,  M. A. Watson,  
 C. F. Williams,  Q. Wu,  X. Xu,  Jun Yang,  W. Zhang,  Yan Zhao

   Please cite Q-Chem as follows:
  "Software for the frontiers of quantum chemistry:
   An overview of developments in the Q-Chem 5 package"
   J. Chem. Phys. 155, 084801 (2021)
   https://doi.org/10.1063/5.0055522 (open access)

 Q-Chem 6.0.1 for Intel X86 EM64T Linux

 Parts of Q-Chem use Armadillo 9.900.5 (Nocturnal Misbehaviour).
 http://arma.sourceforge.net/

 Q-Chem begins on Thu Jan 25 18:11:05 2024  

 Host: atlas-150
0

     Scratch files written to ./qchem155056//
 Processing $rem in /scratch/abel/SOFTWARE/qchem/config/preferences:
 Processing $rem in /dipc/acebg/.qchemrc:
 Core orbitals will be frozen

 Checking the input file for inconsistencies... 	...done.

--------------------------------------------------------------
User input:
--------------------------------------------------------------
$comment
 RAS-SF CALCULATION
$end

$molecule
 READ benzoquinone.molecule
$end

$rem
!**CALCULATION TYPE***     
JOBTYPE            sp    
BASIS              6-31G*
BASIS2             STO-3G

!***SCF REFERENCE***
INPUT_BOHR         TRUE
!SKIP_SCFMAN        FALSE
UNRESTRICTED       FALSE
!SCF_GUESS          core
!SCF_GUESS_MIX      FALSE
!SCF_GUESS_ALWAYS   FALSE
MAX_SCF_CYCLES     500
!SCF_CONVERGENCE    10
SCF_ALGORITHM      DIIS_GDM !DIIS,DM,DIIS_DM,GDM,DIIS_GDM,GD

!SYMMETRY           TRUE   !use of symmetry for calculating integrals
!SYM_IGNORE         FALSE  !turn off using symmetry
!SYM_TOL            5      !tolerance for determining point group
!USE_ABELIAN_SUBGROUP      !define to use abelian group

!THRESH             14
!SCF_FINAL_PRINT     1 !0,1,2,3

!****CCSD****
CORRELATION        CCSD
!CC_CONVERGENCE     6
!CC_MAX_ITER        200
CC_PRINT	   1
!CHOLESKY_TOL       3 !Toler. decomposition 2e integrals
CC_REF_PROP  	   1 !one-particle CCSD properties calculation
!CC_REF_PROP_TE	   0 !two-particle CCSD properties calculation
!CC_FNO_THRESH
!CC_BACKEND	   XM !Used to specify the computational back-end of CCMAN2.

!****MEMORY****
MEM_TOTAL          90000 !Default 2000 MB
MEM_STATIC         1000  !Default 64 MB
CC_MEMORY          72000

!**Molecular Properties and Analysis **                                                                                          
!POP_MULLIKEN       TRUE   !Run Mulliken population analysis
!LOWDIN_POPULATION  TRUE   !Run Löwdin population analysis
GUI                0       !Checkpoints generation
!STATE_ANALYSIS     TRUE

!**Wave function analysis**
!PLOTS = 0     ! Note: This can be omitted, default is 0
!NTO_PAIRS = 2 ! Note: This can be omitted, default is 2
!GUI 0
!MOLDEN_FORMAT      TRUE
!PRINT_ORBITALS     15
$end

!$plots
!   grid_points 100 100 100
!   grid_range  (-10,10) (-10,10) (-10,10)
!$end

--------------------------------------------------------------
 ----------------------------------------------------------------
             Standard Nuclear Orientation (Bohr)
    I     Atom           X                Y                Z
 ----------------------------------------------------------------
    1      O       0.0000000000    -0.0000000000     5.0873465738
    2      C       0.0000000000    -0.0000000000     2.6403222818
    3      C       2.3453549260    -0.0000000000     1.3021362826
    4      C      -2.3453549260     0.0000000000     1.3021362826
    5      C      -2.3309491506     0.0000000000    -1.2666211182
    6      C       2.3309491506    -0.0000000000    -1.2666211182
    7      C      -0.0000000000     0.0000000000    -2.7415020535
    8      O      -0.0000000000     0.0000000000    -5.0815679785
    9      H       4.0818321701    -0.0000000000     2.3803198434
   10      H      -4.0818321701     0.0000000000     2.3803198434
   11      H       4.0900977079    -0.0000000000    -2.3129858956
   12      H      -4.0900977079     0.0000000000    -2.3129858956
 ----------------------------------------------------------------
 Molecular Point Group                 C2v   NOp =  4
 Largest Abelian Subgroup              C2v   NOp =  4
 Nuclear Repulsion Energy =         323.04806769 hartrees
 There are       29 alpha and       27 beta electrons
 Requested basis set is 6-31G(d)
 There are 40 shells and 128 basis functions
 Total memory of 90000 MB is distributed as follows: 
   MEM_STATIC is set to 1000 MB
   QALLOC/CCMAN JOB total memory use is  89000 MB
 Warning: actual memory use might exceed 90000 MB

 Total QAlloc Memory Limit  90000 MB
 Mega-Array Size       978 MB
 MEM_STATIC part      1000 MB


                       Distance Matrix (Bohrs)
             O (  1)   C (  2)   C (  3)   C (  4)   C (  5)   C (  6)
   C (  2)  2.447024
   C (  3)  4.452921  2.700265
   C (  4)  4.452921  2.700265  4.690710
   C (  5)  6.768030  4.549454  5.335385  2.568798
   C (  6)  6.768030  4.549454  2.568798  5.335385  4.661898
   C (  7)  7.828849  5.381824  4.674580  4.674580  2.758369  2.758369
   O (  8) 10.168915  7.721890  6.800909  6.800909  4.470698  4.470698
   H (  9)  4.897892  4.090105  2.043975  6.516994  7.377258  4.045463
   H ( 10)  4.897892  4.090105  6.516994  2.043975  4.045463  7.377258
   H ( 11)  8.455402  6.423719  4.014130  7.381339  6.505745  2.046823
   H ( 12)  8.455402  6.423719  7.381339  4.014130  2.046823  6.505745
             C (  7)   O (  8)   H (  9)   H ( 10)   H ( 11)
   O (  8)  2.340066
   H (  9)  6.549383  8.505359
   H ( 10)  6.549383  8.505359  8.163664
   H ( 11)  4.112484  4.939023  4.693313  9.423776
   H ( 12)  4.112484  4.939023  9.423776  4.693313  8.180195
 
 A cutoff of  1.0D-14 yielded    776 shell pairs
 There are      8268 function pairs
 Smallest overlap matrix eigenvalue = 5.25E-04

 Scale SEOQF with 1.000000e-01/1.000000e+00/1.000000e-01

 Standard Electronic Orientation quadrupole field applied
 Nucleus-field energy     =    -0.0000000149 hartrees
 Requested basis set is STO-3G
 There are 20 shells and 44 basis functions
 A cutoff of  1.0D-14 yielded    188 shell pairs
 There are      1010 function pairs
 Smallest overlap matrix eigenvalue = 1.78E-01
 Constructing guess Fock matrix from core Hamiltonian
 Applying Wolfsberg-Helmholtz approximation
 A restricted Hartree-Fock SCF calculation will be
 performed using Geometric Direct Minimization
 SCF converges when RMS gradient is below 1.0E-04
 ---------------------------------------
  Cycle       Energy        RMS Gradient
 ---------------------------------------
    1    -373.1360314767      3.45E-01 Descent step
    2    -373.5358621236      2.44E-01 Descent step
    3    -373.8360463005      1.73E-01 Descent step
    4    -374.0460862094      1.29E-01 Descent step
    5    -374.1822724290      2.03E-01 Descent step
    6    -374.2915682910      1.08E-01 Normal BFGS step
    7    -374.3081201623      1.50E-01 Normal BFGS step
    8    -374.3043788574      1.92E-02 Line search: overstep
    9    -374.3176016888      1.07E-01 Descent step
   10    -374.3272623304      6.99E-02 Normal BFGS step
   11    -374.3332112964      3.07E-02 Normal BFGS step
   12    -374.3340508411      9.10E-03 Normal BFGS step
   13    -374.3341343501      2.78E-03 Normal BFGS step
   14    -374.3341451870      1.57E-03 Normal BFGS step
   15    -374.3341470717      3.12E-04 Normal BFGS step
   16    -374.3341472179      8.45E-05 Convergence criterion met
 ---------------------------------------
 SCF time:  CPU 0.31 s  wall 0.70 s
 SCF   energy in the small basis set = -374.33414722
 Total energy in the small basis set = -374.33414722
 ----------------------------------------------------
  Cycle       Energy    
 ----------------------------------------------------
    1     -44.3734131163     -4.44E+01
 A restricted Hartree-Fock SCF calculation will be
 performed using Geometric Direct Minimization
 SCF converges when RMS gradient is below 1.0E-08
 ---------------------------------------
  Cycle       Energy        RMS Gradient
 ---------------------------------------
    1    -378.7598071048      5.90E-01 Descent step
    2    -379.0636034846      1.71E-01 Descent step
    3    -379.1473822732      7.07E-02 Normal BFGS step
    4    -379.1614498374      3.38E-02 Normal BFGS step
    5    -379.1663532758      9.62E-03 Normal BFGS step
    6    -379.1667222533      5.41E-03 Normal BFGS step
    7    -379.1667882712      1.69E-03 Normal BFGS step
    8    -379.1667969896      9.17E-04 Normal BFGS step
    9    -379.1667994420      5.98E-04 Normal BFGS step
   10    -379.1668006253      5.71E-04 Normal BFGS step
   11    -379.1668018005      3.44E-04 Normal BFGS step
   12    -379.1668024024      1.61E-04 Normal BFGS step
   13    -379.1668025641      8.64E-05 Normal BFGS step
   14    -379.1668025834      4.93E-05 Normal BFGS step
   15    -379.1668025868      5.29E-06 Normal BFGS step
   16    -379.1668025872      3.02E-06 Normal BFGS step
   17    -379.1668025872      2.17E-06 Normal BFGS step
   18    -379.1668025872      1.13E-06 Normal BFGS step
   19    -379.1668025872      1.47E-07 Normal BFGS step
   20    -379.1668025872      6.45E-08 Normal BFGS step
   21    -379.1668025872      1.47E-08 Normal BFGS step
   GDM::WARNING energy changes are now smaller than effective accuracy.
   GDM::        calculation will continue, but THRESH should be increased
   GDM::        or SCF_CONVERGENCE decreased.
   GDM::        effective_thresh =   6.707406019490492E-010
   22    -379.1668025872      3.52E-09 Convergence criterion met
 ---------------------------------------
 SCF time:  CPU 15.47 s  wall 17.32 s
 SCF   energy in the final basis set = -379.16680259
 Total energy in the final basis set = -379.16680259


 ------------------------------------------------------------------------------

   CCMAN2: suite of methods based on coupled cluster
           and equation of motion theories.

   Components:
   * libvmm-1.3-trunk
     by Evgeny Epifanovsky, Ilya Kaliman.
   * libtensor-2.5-trunk
     by Evgeny Epifanovsky, Michael Wormit, Dmitry Zuev, Sam Manzer, 
        Ilya Kaliman.
   * libcc-2.5-trunk
     by Evgeny Epifanovsky, Arik Landau, Tomasz Kus, Kirill Khistyaev, 
        Dmitry Zuev, Prashant Manohar, Xintian Feng, Anna Krylov, 
        Matthew Goldey, Alec White, Thomas Jagau, Kaushik Nanda, 
        Anastasia Gunina, Alexander Kunitsa, Joonho Lee.

   CCMAN original authors:
   Anna I. Krylov, C. David Sherrill, Steven R. Gwaltney,
   Edward F. C. Byrd (2000)
   Sergey V. Levchenko, Lyudmila V. Slipchenko, Tao Wang,
   Ana-Maria C. Cristian (2003)
   Piotr A. Pieniazek, C. Melania Oana, Evgeny Epifanovsky (2007)
   Prashant Manohar (2009)

 ------------------------------------------------------------------------------


 Allocating and initializing 72000MB of RAM...
 Calculation will run on 1 core.

 
 Alpha MOs, Restricted
 -- Doubly Occupied --           
-20.713 -20.543 -11.360 -11.323 -11.278 -11.278 -11.268 -11.268
  1 A1    2 A1    3 A1    4 A1    1 B1    5 A1    2 B1    6 A1                 
 -1.510  -1.370  -1.169  -1.066  -0.997  -0.875  -0.837  -0.754
  7 A1    8 A1    9 A1    3 B1   10 A1    4 B1   11 A1   12 A1                 
 -0.697  -0.681  -0.690  -0.630  -0.630  -0.584  -0.555  -0.574
  5 B1   13 A1    1 B2    6 B1   14 A1   15 A1    7 B1    2 B2                 
 -0.477  -0.423  -0.402
  3 B2    8 B1    1 A2                                                         
 -- Singly Occupied (Occupied) --
 -0.680  -0.285
  9 B1    4 B2                                                                 
 -- Virtual --                   
  0.101   0.136   0.227   0.266   0.291   0.326   0.338   0.368
  2 A2    5 B2   16 A1   10 B1   17 A1   11 B1    6 B2   18 A1                 
  0.377   0.437   0.473   0.525   0.543   0.667   0.675   0.698
 19 A1   20 A1   12 B1   13 B1   21 A1   22 A1   23 A1   14 B1                 
  0.701   0.729   0.766   0.786   0.799   0.801   0.826   0.871
  7 B2   15 B1   24 A1    3 A2   16 B1    8 B2   25 A1    9 B2                 
  0.873   0.917   0.921   0.957   0.971   1.011   1.082   1.087
  4 A2   17 B1   26 A1   27 A1   10 B2   28 A1   29 A1   18 B1                 
  1.102   1.109   1.144   1.144   1.176   1.188   1.185   1.250
 19 B1   30 A1   31 A1   20 B1   11 B2   32 A1   21 B1   22 B1                 
  1.272   1.312   1.351   1.381   1.422   1.443   1.487   1.511
 33 A1   12 B2   23 B1   34 A1   24 B1    5 A2   25 B1   35 A1                 
  1.581   1.672   1.672   1.681   1.692   1.742   1.757   1.903
 13 B2   14 B2    6 A2   26 B1   15 B2    7 A2   36 A1   37 A1                 
  1.973   1.957   2.036   2.081   2.103   2.146   2.146   2.159
 27 B1    8 A2   38 A1   39 A1    9 A2   40 A1   28 B1   41 A1                 
  2.182   2.186   2.252   2.326   2.338   2.357   2.365   2.431
 16 B2   42 A1   29 B1   30 B1   43 A1   17 B2   44 A1   45 A1                 
  2.436   2.561   2.566   2.620   2.625   2.797   2.809   2.919
 10 A2   31 B1   11 A2   32 B1   18 B2   46 A1   19 B2   33 B1                 
  2.936   2.936   2.945   3.048   3.070   3.159   3.236   3.302
 47 A1   12 A2   20 B2   48 A1   49 A1   34 B1   50 A1   35 B1                 
  3.366   3.544   3.712   4.226   4.372   4.497   4.516   4.709
 51 A1   36 B1   52 A1   53 A1   54 A1   55 A1   37 B1   38 B1                 
  4.743   4.873   5.199
 56 A1   57 A1   58 A1                                                         
 
 Beta MOs, Restricted
 -- Doubly Occupied --           
-20.676 -20.537 -11.354 -11.322 -11.276 -11.276 -11.265 -11.265
  1 A1    2 A1    3 A1    4 A1    1 B1    5 A1    2 B1    6 A1                 
 -1.386  -1.349  -1.144  -1.054  -0.955  -0.856  -0.816  -0.721
  7 A1    8 A1    9 A1    3 B1   10 A1    4 B1   11 A1   12 A1                 
 -0.680  -0.672  -0.623  -0.626  -0.615  -0.574  -0.542  -0.517
  5 B1   13 A1    1 B2    6 B1   14 A1   15 A1    7 B1    2 B2                 
 -0.398  -0.415  -0.374
  3 B2    8 B1    1 A2                                                         
 -- Singly Occupied (Vacant) --  
  0.096   0.008
  9 B1    4 B2                                                                 
 -- Virtual --                   
  0.148   0.209   0.231   0.267   0.295   0.330   0.376   0.378
  2 A2    5 B2   16 A1   10 B1   17 A1   11 B1    6 B2   18 A1                 
  0.396   0.446   0.479   0.547   0.559   0.680   0.684   0.709
 19 A1   20 A1   12 B1   13 B1   21 A1   22 A1   23 A1   14 B1                 
  0.717   0.745   0.774   0.795   0.811   0.823   0.845   0.885
  7 B2   15 B1   24 A1    3 A2   16 B1    8 B2   25 A1    9 B2                 
  0.889   0.932   0.928   0.974   0.984   1.021   1.089   1.090
  4 A2   17 B1   26 A1   27 A1   10 B2   28 A1   29 A1   18 B1                 
  1.106   1.114   1.147   1.173   1.206   1.194   1.203   1.314
 19 B1   30 A1   31 A1   20 B1   11 B2   32 A1   21 B1   22 B1                 
  1.284   1.344   1.363   1.385   1.430   1.464   1.493   1.524
 33 A1   12 B2   23 B1   34 A1   24 B1    5 A2   25 B1   35 A1                 
  1.603   1.693   1.692   1.689   1.705   1.752   1.781   1.920
 13 B2   14 B2    6 A2   26 B1   15 B2    7 A2   36 A1   37 A1                 
  1.990   2.042   2.095   2.096   2.123   2.156   2.170   2.169
 27 B1    8 A2   38 A1   39 A1    9 A2   40 A1   28 B1   41 A1                 
  2.195   2.210   2.260   2.345   2.344   2.371   2.375   2.447
 16 B2   42 A1   29 B1   30 B1   43 A1   17 B2   44 A1   45 A1                 
  2.447   2.580   2.582   2.631   2.635   2.812   2.830   2.926
 10 A2   31 B1   11 A2   32 B1   18 B2   46 A1   19 B2   33 B1                 
  2.946   2.946   2.958   3.057   3.076   3.163   3.255   3.316
 47 A1   12 A2   20 B2   48 A1   49 A1   34 B1   50 A1   35 B1                 
  3.372   3.551   3.715   4.253   4.376   4.504   4.519   4.712
 51 A1   36 B1   52 A1   53 A1   54 A1   55 A1   37 B1   38 B1                 
  4.752   4.878   5.204
 56 A1   57 A1   58 A1                                                         

 Occupation and symmetry of molecular orbitals

 Point group: C2v (4 irreducible representations).

                           A1   A2   B1   B2    All 
 ----------------------------------------------------
 All molecular orbitals:
  - Alpha                  58   12   38   20    128 
  - Beta                   58   12   38   20    128 
 ----------------------------------------------------
 Alpha orbitals:
  - Frozen occupied        6    0    2    0     8   
  - Active occupied        9    1    7    4     21  
  - Active virtual         43   11   29   16    99  
  - Frozen virtual         0    0    0    0     0   
 ----------------------------------------------------
 Beta orbitals:
  - Frozen occupied        6    0    2    0     8   
  - Active occupied        9    1    6    3     19  
  - Active virtual         43   11   30   17    101 
  - Frozen virtual         0    0    0    0     0   
 ----------------------------------------------------

 Import integrals:   CPU 0.00 s  wall 0.00 s

 Molecular orbitals will be canonicalized.
 Import integrals:   CPU 15.73 s  wall 16.79 s

 MP2 amplitudes:   CPU 0.43 s  wall 2.49 s

Running a double precision version
           CCSD T amplitudes will be solved using DIIS.

           Start     Size      MaxIter   EConv     TConv     
           3         7         100       1.00e-06  1.00e-04  
 ------------------------------------------------------------------------------
           Energy (a.u.)   Ediff      Tdiff       Comment
 ------------------------------------------------------------------------------
          -380.23535580                           
     1    -380.23033471   5.02e-03   9.69e-01     
     2    -380.26881240   3.85e-02   1.29e-01     
     3    -380.26724099   1.57e-03   5.08e-02     
     4    -380.27182009   4.58e-03   2.60e-02     Switched to DIIS steps.
     5    -380.27440121   2.58e-03   1.52e-02     
     6    -380.27497379   5.73e-04   5.71e-03     
     7    -380.27523663   2.63e-04   3.73e-03     
     8    -380.27531571   7.91e-05   1.56e-03     
     9    -380.27537055   5.48e-05   9.81e-04     
    10    -380.27538465   1.41e-05   3.78e-04     
    11    -380.27539532   1.07e-05   2.32e-04     
    12    -380.27539531   4.78e-09   1.50e-04     
    13    -380.27539606   7.45e-07   7.96e-05     
 ------------------------------------------------------------------------------
          -380.27539606                           CCSD T converged.

End of double precision
 SCF energy                 = -379.16680259
 MP2 energy                 = -380.23491892
 CCSD correlation energy    =   -1.10859347
 CCSD total energy          = -380.27539606

 CCSD  T1^2 = 0.0545  T2^2 = 0.3992  Leading amplitudes:

 Amplitude    Orbitals with energies
 -0.0911       3 (B2) B                  ->    5 (B2) B                   
              -0.3984                          0.2090                     
  0.0869       7 (B1) B                  ->    9 (B1) B                   
              -0.5419                          0.0458                     
 -0.0654       2 (B2) B                  ->    4 (B2) B                   
              -0.5166                          0.0054                     
  0.0607       5 (B1) B                  ->    9 (B1) B                   
              -0.6796                          0.0458                     

 Amplitude    Orbitals with energies
  0.0828       1 (A2) A      1 (A2) B    ->    2 (A2) A      2 (A2) B     
              -0.4020       -0.3739            0.1009        0.1478       
 -0.0828       1 (A2) A      1 (A2) B    ->    2 (A2) B      2 (A2) A     
              -0.4020       -0.3739            0.1478        0.1009       
 -0.0828       1 (A2) B      1 (A2) A    ->    2 (A2) A      2 (A2) B     
              -0.3739       -0.4020            0.1009        0.1478       
  0.0828       1 (A2) B      1 (A2) A    ->    2 (A2) B      2 (A2) A     
              -0.3739       -0.4020            0.1478        0.1009       

 Computing CCSD intermediates for later calculations in double precision
 Finished.

Running a double precision version
           CCSD Lambda amplitudes will be solved using DIIS.
           Start     Size      MaxIter   EConv     LConv     
           3         7         100       1.00e-06  1.00e-04  
 ------------------------------------------------------------------------------
            Enorm      Ldiff       Comment
 ------------------------------------------------------------------------------
     1     8.39e-02   4.72e-02     
     2     2.83e-02   5.06e-03     
     3     1.41e-02   8.85e-04     
     4     7.47e-03   1.08e-03     Switched to DIIS steps.
     5     3.00e-03   5.75e-04     
     6     1.62e-03   1.99e-04     
     7     7.06e-04   3.99e-05     
     8     3.77e-04   3.35e-06     
     9     1.98e-04   4.79e-07     
    10     1.20e-04   6.06e-07     
    11     5.76e-05   1.93e-06     
    12     2.97e-05   1.42e-06     
    13     1.71e-05   1.49e-06     
    14     1.07e-05   2.61e-07     
    15     6.83e-06   3.02e-07     
    16     4.21e-06   2.76e-09     
    17     3.17e-06   1.38e-07     
    18     1.81e-06   1.66e-07     
    19     1.22e-06   1.59e-07     
    20     6.44e-07   1.19e-07     
 ------------------------------------------------------------------------------
                                   CCSD Lambda converged.

 Computing density matrices in double precision...
 Computing density matrices... Done.
 Reference state properties
 Dipole moment (a.u.): 1.161402 (X 0.000000, Y 0.000000, Z 1.161402)
 R-squared (a.u.): 864.429510 (XX 225.750994, YY 34.533714, ZZ 604.144801)
 Gauge origin (a.u.): (0.000000, 0.000000, 0.000000)
 Angular momentum (a.u.) against gauge origin: 
 (X 0.000000i, Y 0.000000i, Z 0.000000i)
 Traces of the OPDMs: Tr(AA) 29.000000, Tr(BB) 27.000000
 Density matrix was written to a file for further analysis.

 CCSD calculation:   CPU 112.27 s  wall 112.87 s

 Total ccman2 time:   CPU 131.86 s  wall 135.72 s

 
 --------------------------------------------------------------
             Orbital Energies (a.u.) and Symmetries
 --------------------------------------------------------------
 
 Alpha MOs, Restricted
 -- Doubly Occupied --           
-20.713 -20.543 -11.360 -11.323 -11.278 -11.278 -11.268 -11.268
  1 A1    2 A1    3 A1    4 A1    1 B1    5 A1    2 B1    6 A1                 
 -1.510  -1.370  -1.169  -1.066  -0.997  -0.875  -0.837  -0.754
  7 A1    8 A1    9 A1    3 B1   10 A1    4 B1   11 A1   12 A1                 
 -0.697  -0.681  -0.690  -0.630  -0.630  -0.584  -0.555  -0.574
  5 B1   13 A1    1 B2    6 B1   14 A1   15 A1    7 B1    2 B2                 
 -0.477  -0.423  -0.402
  3 B2    8 B1    1 A2                                                         
 -- Singly Occupied (Occupied) --
 -0.680  -0.285
  9 B1    4 B2                                                                 
 -- Virtual --                   
  0.101   0.136   0.227   0.266   0.291   0.326   0.338   0.368
  2 A2    5 B2   16 A1   10 B1   17 A1   11 B1    6 B2   18 A1                 
  0.377   0.437   0.473   0.525   0.543   0.667   0.675   0.698
 19 A1   20 A1   12 B1   13 B1   21 A1   22 A1   23 A1   14 B1                 
  0.701   0.729   0.766   0.786   0.799   0.801   0.826   0.871
  7 B2   15 B1   24 A1    3 A2   16 B1    8 B2   25 A1    9 B2                 
  0.873   0.917   0.921   0.957   0.971   1.011   1.082   1.087
  4 A2   17 B1   26 A1   27 A1   10 B2   28 A1   29 A1   18 B1                 
  1.102   1.109   1.144   1.144   1.176   1.188   1.185   1.250
 19 B1   30 A1   31 A1   20 B1   11 B2   32 A1   21 B1   22 B1                 
  1.272   1.312   1.351   1.381   1.422   1.443   1.487   1.511
 33 A1   12 B2   23 B1   34 A1   24 B1    5 A2   25 B1   35 A1                 
  1.581   1.672   1.672   1.681   1.692   1.742   1.757   1.903
 13 B2   14 B2    6 A2   26 B1   15 B2    7 A2   36 A1   37 A1                 
  1.973   1.957   2.036   2.081   2.103   2.146   2.146   2.159
 27 B1    8 A2   38 A1   39 A1    9 A2   40 A1   28 B1   41 A1                 
  2.182   2.186   2.252   2.326   2.338   2.357   2.365   2.431
 16 B2   42 A1   29 B1   30 B1   43 A1   17 B2   44 A1   45 A1                 
  2.436   2.561   2.566   2.620   2.625   2.797   2.809   2.919
 10 A2   31 B1   11 A2   32 B1   18 B2   46 A1   19 B2   33 B1                 
  2.936   2.936   2.945   3.048   3.070   3.159   3.236   3.302
 47 A1   12 A2   20 B2   48 A1   49 A1   34 B1   50 A1   35 B1                 
  3.366   3.544   3.712   4.226   4.372   4.497   4.516   4.709
 51 A1   36 B1   52 A1   53 A1   54 A1   55 A1   37 B1   38 B1                 
  4.743   4.873   5.199
 56 A1   57 A1   58 A1                                                         
 
 Beta MOs, Restricted
 -- Doubly Occupied --           
-20.676 -20.537 -11.354 -11.322 -11.276 -11.276 -11.265 -11.265
  1 A1    2 A1    3 A1    4 A1    1 B1    5 A1    2 B1    6 A1                 
 -1.386  -1.349  -1.144  -1.054  -0.955  -0.856  -0.816  -0.721
  7 A1    8 A1    9 A1    3 B1   10 A1    4 B1   11 A1   12 A1                 
 -0.680  -0.672  -0.623  -0.626  -0.615  -0.574  -0.542  -0.517
  5 B1   13 A1    1 B2    6 B1   14 A1   15 A1    7 B1    2 B2                 
 -0.398  -0.415  -0.374
  3 B2    8 B1    1 A2                                                         
 -- Singly Occupied (Vacant) --  
  0.096   0.008
  9 B1    4 B2                                                                 
 -- Virtual --                   
  0.148   0.209   0.231   0.267   0.295   0.330   0.376   0.378
  2 A2    5 B2   16 A1   10 B1   17 A1   11 B1    6 B2   18 A1                 
  0.396   0.446   0.479   0.547   0.559   0.680   0.684   0.709
 19 A1   20 A1   12 B1   13 B1   21 A1   22 A1   23 A1   14 B1                 
  0.717   0.745   0.774   0.795   0.811   0.823   0.845   0.885
  7 B2   15 B1   24 A1    3 A2   16 B1    8 B2   25 A1    9 B2                 
  0.889   0.932   0.928   0.974   0.984   1.021   1.089   1.090
  4 A2   17 B1   26 A1   27 A1   10 B2   28 A1   29 A1   18 B1                 
  1.106   1.114   1.147   1.173   1.206   1.194   1.203   1.314
 19 B1   30 A1   31 A1   20 B1   11 B2   32 A1   21 B1   22 B1                 
  1.284   1.344   1.363   1.385   1.430   1.464   1.493   1.524
 33 A1   12 B2   23 B1   34 A1   24 B1    5 A2   25 B1   35 A1                 
  1.603   1.693   1.692   1.689   1.705   1.752   1.781   1.920
 13 B2   14 B2    6 A2   26 B1   15 B2    7 A2   36 A1   37 A1                 
  1.990   2.042   2.095   2.096   2.123   2.156   2.170   2.169
 27 B1    8 A2   38 A1   39 A1    9 A2   40 A1   28 B1   41 A1                 
  2.195   2.210   2.260   2.345   2.344   2.371   2.375   2.447
 16 B2   42 A1   29 B1   30 B1   43 A1   17 B2   44 A1   45 A1                 
  2.447   2.580   2.582   2.631   2.635   2.812   2.830   2.926
 10 A2   31 B1   11 A2   32 B1   18 B2   46 A1   19 B2   33 B1                 
  2.946   2.946   2.958   3.057   3.076   3.163   3.255   3.316
 47 A1   12 A2   20 B2   48 A1   49 A1   34 B1   50 A1   35 B1                 
  3.372   3.551   3.715   4.253   4.376   4.504   4.519   4.712
 51 A1   36 B1   52 A1   53 A1   54 A1   55 A1   37 B1   38 B1                 
  4.752   4.878   5.204
 56 A1   57 A1   58 A1                                                         
 --------------------------------------------------------------
 
          Ground-State Mulliken Net Atomic Charges

     Atom                 Charge (a.u.)
  ----------------------------------------
      1 O                    -0.250845
      2 C                     0.322789
      3 C                    -0.196783
      4 C                    -0.196783
      5 C                    -0.216466
      6 C                    -0.216466
      7 C                     0.386753
      8 O                    -0.460327
      9 H                     0.208673
     10 H                     0.208673
     11 H                     0.205391
     12 H                     0.205391
  ----------------------------------------
  Sum of atomic charges =     0.000000

 -----------------------------------------------------------------
                    Cartesian Multipole Moments
 -----------------------------------------------------------------
    Charge (ESU x 10^10)
                -0.0000
    Dipole Moment (Debye)
         X      -0.0000      Y      -0.0000      Z       2.9520
       Tot       2.9520
    Quadrupole Moments (Debye-Ang)
        XX     -37.3413     XY      -0.0000     YY     -46.4490
        XZ       0.0000     YZ      -0.0000     ZZ     -56.4434
    Octopole Moments (Debye-Ang^2)
       XXX      -0.0000    XXY      -0.0000    XYY      -0.0000
       YYY      -0.0000    XXZ       2.6995    XYZ       0.0000
       YYZ      -0.9607    XZZ       0.0000    YZZ      -0.0000
       ZZZ      26.0510
    Hexadecapole Moments (Debye-Ang^3)
      XXXX    -267.0315   XXXY      -0.0000   XXYY     -63.9647
      XYYY      -0.0000   YYYY     -44.4960   XXXZ       0.0000
      XXYZ       0.0000   XYYZ       0.0000   YYYZ      -0.0000
      XXZZ    -152.0236   XYZZ      -0.0000   YYZZ    -126.5103
      XZZZ       0.0000   YZZZ       0.0000   ZZZZ    -852.8962
 -----------------------------------------------------------------
 Total job time:  178.03s(wall), 170.58s(cpu) 
 Thu Jan 25 18:14:03 2024

        *************************************************************
        *                                                           *
        *  Thank you very much for using Q-Chem.  Have a nice day.  *
        *                                                           *
        *************************************************************


