                  Welcome to Q-Chem
     A Quantum Leap Into The Future Of Chemistry


 Q-Chem 6.0 (devel), Q-Chem, Inc., Pleasanton, CA (2022)

 E. Epifanovsky,  A. T. B. Gilbert,  Xintian Feng,  Joonho Lee,  Yuezhi Mao,  
 N. Mardirossian,  P. Pokhilko,  A. White,  M. Wormit,  M. P. Coons,  
 A. L. Dempwolff,  Zhengting Gan,  D. Hait,  P. R. Horn,  L. D. Jacobson,  
 I. Kaliman,  J. Kussmann,  A. W. Lange,  Ka Un Lao,  D. S. Levine,  Jie Liu,  
 S. C. McKenzie,  A. F. Morrison,  K. Nanda,  F. Plasser,  D. R. Rehn,  
 M. L. Vidal,  Zhi-Qiang You,  Ying Zhu,  B. Alam,  B. Albrecht,  
 A. Aldossary,  E. Alguire,  J. H. Andersen,  V. Athavale,  D. Barton,  
 K. Begam,  A. Behn,  N. Bellonzi,  Y. A. Bernard,  E. J. Berquist,  
 H. Burton,  A. Carreras,  K. Carter-Fenk,  Romit Chakraborty,  
 Chandrima Chakravarty,  Junhan Chen,  A. D. Chien,  K. D. Closser,  
 V. Cofer-Shabica,  L. Cunha,  S. Dasgupta,  Jia Deng,  M. de Wergifosse,  
 M. Diedenhofen,  Hainam Do,  S. Ehlert,  Po-Tung Fang,  S. Fatehi,  
 Qingguo Feng,  T. Friedhoff,  B. Ganoe,  J. Gayvert,  Qinghui Ge,  
 G. Gidofalvi,  M. Goldey,  J. Gomes,  C. Gonzalez-Espinoza,  S. Gulania,  
 A. Gunina,  J. A. Gyamfi,  M. W. D. Hanson-Heine,  P. H. P. Harbach,  
 A. W. Hauser,  M. F. Herbst,  M. Hernandez Vera,  M. Hodecker,  
 Z. C. Holden,  S. Houck,  Xunkun Huang,  Kerwin Hui,  B. C. Huynh,  
 K. Ikeda,  M. Ivanov,  Hyunjun Ji,  Zuxin Jin,  Hanjie Jiang,  B. Kaduk,  
 S. Kaehler,  R. Kang,  K. Khistyaev,  Jaehoon Kim,  Yongbin Kim,  
 P. Klunzinger,  Z. Koczor-Benda,  Joong Hoon Koh,  D. Kosenkov,  
 Saikiran Kotaru,  L. Koulias,  T. Kowalczyk,  C. M. Krauter,  K. Kue,  
 A. Kunitsa,  T. Kus,  A. Landau,  K. V. Lawler,  D. Lefrancois,  S. Lehtola,  
 Rain Li,  Shaozhi Li,  Yi-Pei Li,  Jiashu Liang,  M. Liebenthal,  
 Hung-Hsuan Lin,  You-Sheng Lin,  Fenglai Liu,  Kuan-Yu Liu,  
 M. Loipersberger,  A. Luenser,  C. Malbon,  A. Manjanath,  P. Manohar,  
 E. Mansoor,  S. F. Manzer,  Shan-Ping Mao,  A. V. Marenich,  T. Markovich,  
 S. Mason,  F. Matz,  S. A. Maurer,  P. F. McLaughlin,  M. F. S. J. Menger,  
 J.-M. Mewes,  S. A. Mewes,  P. Morgante,  Mohammad Mostafanejad,  
 J. W. Mullinax,  K. J. Oosterbaan,  G. Paran,  V. Parravicini,  
 Alexander C. Paul,  Suranjan K. Paul,  F. Pavosevic,  Zheng Pei,  S. Prager,  
 E. I. Proynov,  E. Ramos,  B. Rana,  A. E. Rask,  A. Rettig,  R. M. Richard,  
 F. Rob,  E. Rossomme,  T. Scheele,  M. Scheurer,  M. Schneider,  
 P. E. Schneider,  N. Sergueev,  S. M. Sharada,  Hengyuan Shen,  
 W. Skomorowski,  D. W. Small,  C. J. Stein,  Yingli Su,  Yu-Chuan Su,  
 E. J. Sundstrom,  Zhen Tao,  J. Thirman,  Hung-Yi Tsai,  T. Tsuchimochi,  
 N. M. Tubman,  C. Utku,  S. P. Veccham,  O. Vydrov,  J. Wenzel,  
 Jonathan Wong,  J. Witte,  A. Yamada,  Chou-Hsun Yang,  Kun Yao,  
 S. Yeganeh,  S. R. Yost,  A. Zech,  F. Zeller,  Igor Ying Zhang,  
 Xing Zhang,  Yu Zhang,  D. Zuev,  A. Aspuru-Guzik,  A. T. Bell,  
 N. A. Besley,  K. B. Bravaya,  B. R. Brooks,  D. Casanova,  Jeng-Da Chai,  
 Hsing-Ta Chen,  S. Coriani,  C. J. Cramer,  A. E. DePrince, III,  
 R. A. DiStasio Jr.,  A. Dreuw,  B. D. Dunietz,  T. R. Furlani,  
 W. A. Goddard III,  S. Grimme,  S. Hammes-Schiffer,  T. Head-Gordon,  
 W. J. Hehre,  Chao-Ping Hsu,  T.-C. Jagau,  Yousung Jung,  A. Klamt,  
 Jing Kong,  D. S. Lambrecht,  Xiangyuan Li,  WanZhen Liang,  N. J. Mayhall,  
 C. W. McCurdy,  J. B. Neaton,  T. Neudecker,  C. Ochsenfeld,  
 J. A. Parkhill,  R. Peverati,  V. A. Rassolov,  Haisheng Ren,  Yihan Shao,  
 L. V. Slipchenko,  R. P. Steele,  J. E. Subotnik,  A. J. W. Thom,  
 A. Tkatchenko,  D. G. Truhlar,  T. Van Voorhis,  Fan Wang,  
 T. A. Wesolowski,  K. B. Whaley,  H. L. Woodcock III,  P. M. Zimmerman,  
 S. Faraji,  P. M. W. Gill,  M. Head-Gordon,  J. M. Herbert,  A. I. Krylov

 Contributors to earlier versions of Q-Chem not listed above: 
 R. D. Adamson,  B. Austin,  R. Baer,  J. Baker,  G. J. O. Beran,  
 K. Brandhorst,  S. T. Brown,  E. F. C. Byrd,  Arup K. Chakraborty,  
 G. K. L. Chan,  Chun-Min Chang,  Yunqing Chen,  C.-L. Cheng,  
 Siu Hung Chien,  D. M. Chipman,  D. L. Crittenden,  H. Dachsel,  
 R. J. Doerksen,  A. D. Dutoi,  R. G. Edgar,  J. Fosso-Tande,  
 L. Fusti-Molnar,  D. Ghosh,  A. Ghysels,  A. Golubeva-Zadorozhnaya,  
 J. Gonthier,  M. S. Gordon,  S. R. Gwaltney,  G. Hawkins,  J. E. Herr,  
 A. Heyden,  S. Hirata,  E. G. Hohenstein,  G. Kedziora,  F. J. Keil,  
 C. Kelley,  Jihan Kim,  R. A. King,  R. Z. Khaliullin,  P. P. Korambath,  
 W. Kurlancheek,  A. Laurent,  A. M. Lee,  M. S. Lee,  S. V. Levchenko,  
 Ching Yeh Lin,  D. Liotard,  E. Livshits,  R. C. Lochan,  I. Lotan,  
 L. A. Martinez-Martinez,  P. E. Maslen,  N. Nair,  D. P. O'Neill,  
 D. Neuhauser,  E. Neuscamman,  C. M. Oana,  R. Olivares-Amaya,  R. Olson,  
 T. M. Perrine,  B. Peters,  P. A. Pieniazek,  A. Prociuk,  Y. M. Rhee,  
 J. Ritchie,  M. A. Rohrdanz,  E. Rosta,  N. J. Russ,  H. F. Schaefer III,  
 M. W. Schmidt,  N. E. Schultz,  S. Sharma,  N. Shenvi,  C. D. Sherrill,  
 A. C. Simmonett,  A. Sodt,  T. Stein,  D. Stuck,  K. S. Thanthiriwatte,  
 V. Vanovschi,  L. Vogt,  Tao Wang,  A. Warshel,  M. A. Watson,  
 C. F. Williams,  Q. Wu,  X. Xu,  Jun Yang,  W. Zhang,  Yan Zhao

   Please cite Q-Chem as follows:
  "Software for the frontiers of quantum chemistry:
   An overview of developments in the Q-Chem 5 package"
   J. Chem. Phys. 155, 084801 (2021)
   https://doi.org/10.1063/5.0055522 (open access)

 Q-Chem 6.0.1 for Intel X86 EM64T Linux

 Parts of Q-Chem use Armadillo 9.900.5 (Nocturnal Misbehaviour).
 http://arma.sourceforge.net/

 Q-Chem begins on Thu Jan 25 19:50:32 2024  

 Host: atlas-148
0

     Scratch files written to ./qchem118980//
 Processing $rem in /scratch/abel/SOFTWARE/qchem/config/preferences:
 Processing $rem in /dipc/acebg/.qchemrc:
 Core orbitals will be frozen

 Checking the input file for inconsistencies... 	...done.

--------------------------------------------------------------
User input:
--------------------------------------------------------------
$comment
 RAS-SF CALCULATION
$end

$molecule
 READ benzophenone_singlet.molecule
$end

$rem
!**CALCULATION TYPE***     
JOBTYPE            sp    
BASIS              6-31G*
BASIS2             STO-3G

!***SCF REFERENCE***
INPUT_BOHR         TRUE
!SKIP_SCFMAN        FALSE
UNRESTRICTED       FALSE
!SCF_GUESS          core
!SCF_GUESS_MIX      FALSE
!SCF_GUESS_ALWAYS   FALSE
MAX_SCF_CYCLES     500
!SCF_CONVERGENCE    10
SCF_ALGORITHM      DIIS_GDM !DIIS,DM,DIIS_DM,GDM,DIIS_GDM,GD

!SYMMETRY           TRUE   !use of symmetry for calculating integrals
!SYM_IGNORE         FALSE  !turn off using symmetry
!SYM_TOL            5      !tolerance for determining point group
!USE_ABELIAN_SUBGROUP      !define to use abelian group

!THRESH             14
!SCF_FINAL_PRINT     1 !0,1,2,3

!****CCSD****
CORRELATION        CCSD
!CC_CONVERGENCE     6
!CC_MAX_ITER        200
CC_PRINT	   1
!CHOLESKY_TOL       3 !Toler. decomposition 2e integrals
CC_REF_PROP  	   1 !one-particle CCSD properties calculation
!CC_REF_PROP_TE	   0 !two-particle CCSD properties calculation
!CC_FNO_THRESH
!CC_BACKEND	   XM !Used to specify the computational back-end of CCMAN2.

!****MEMORY****
MEM_TOTAL          100000 !Default 2000 MB
MEM_STATIC         5000  !Default 64 MB
CC_MEMORY          80000

!**Molecular Properties and Analysis **                                                                                          
!POP_MULLIKEN       TRUE   !Run Mulliken population analysis
!LOWDIN_POPULATION  TRUE   !Run Löwdin population analysis
GUI                0       !Checkpoints generation
!STATE_ANALYSIS     TRUE

!**Wave function analysis**
!PLOTS = 0     ! Note: This can be omitted, default is 0
!NTO_PAIRS = 2 ! Note: This can be omitted, default is 2
!GUI 0
!MOLDEN_FORMAT      TRUE
!PRINT_ORBITALS     15
$end

!$plots
!   grid_points 100 100 100
!   grid_range  (-10,10) (-10,10) (-10,10)
!$end

--------------------------------------------------------------
 ----------------------------------------------------------------
             Standard Nuclear Orientation (Bohr)
    I     Atom           X                Y                Z
 ----------------------------------------------------------------
    1      C       0.0000000000    -0.0000000000     1.7616000772
    2      O       0.0000000000    -0.0000000000     4.2626453788
    3      C      -2.4515146503    -0.0331342717     0.5854026033
    4      C       2.4515146503     0.0331342717     0.5854026033
    5      C       2.8430013288     1.0880866231    -1.8463666677
    6      C       4.5970400963    -0.8671930082     1.9264083375
    7      C       6.9748613791    -0.7928839619     0.8403562343
    8      C       5.2262074578     1.1225172668    -2.9109015756
    9      C       7.3157580598     0.1834271136    -1.5850434514
   10      H       1.2649900922     1.9042492020    -2.8578536668
   11      H       4.3392930822    -1.6659511958     3.7896568207
   12      H       5.4817259580     1.9198549006    -4.7799236178
   13      H       8.5807201718    -1.5192143035     1.8831820792
   14      H       9.1788078092     0.2325165625    -2.4295762444
   15      C      -2.8430013288    -1.0880866231    -1.8463666677
   16      C      -4.5970400963     0.8671930082     1.9264083375
   17      C      -5.2262074578    -1.1225172668    -2.9109015756
   18      C      -6.9748613791     0.7928839619     0.8403562343
   19      C      -7.3157580598    -0.1834271136    -1.5850434514
   20      H      -1.2649900922    -1.9042492020    -2.8578536668
   21      H      -5.4817259580    -1.9198549006    -4.7799236178
   22      H      -4.3392930822     1.6659511958     3.7896568207
   23      H      -8.5807201718     1.5192143035     1.8831820792
   24      H      -9.1788078092    -0.2325165625    -2.4295762444
 ----------------------------------------------------------------
 Molecular Point Group                 C2    NOp =  2
 Largest Abelian Subgroup              C2    NOp =  2
 Nuclear Repulsion Energy =         772.43069410 hartrees
 There are       48 alpha and       48 beta electrons
 Requested basis set is 6-31G(d)
 There are 76 shells and 230 basis functions
WARNING: MEM_STATIC is adjusted to be 2000 MB!
 Total memory of 100000 MB is distributed as follows: 
   MEM_STATIC is set to 2000 MB
   QALLOC/CCMAN JOB total memory use is  98000 MB
 Warning: actual memory use might exceed 100000 MB

 Total QAlloc Memory Limit 100000 MB
 Mega-Array Size      1956 MB
 MEM_STATIC part      2000 MB

 A cutoff of  1.0D-14 yielded   2364 shell pairs
 There are     23038 function pairs
 Smallest overlap matrix eigenvalue = 4.64E-04

 Scale SEOQF with 1.000000e-01/1.000000e+00/1.000000e-01

 Standard Electronic Orientation quadrupole field applied
 Nucleus-field energy     =     0.0000000231 hartrees
 Requested basis set is STO-3G
 There are 38 shells and 80 basis functions
 A cutoff of  1.0D-14 yielded    626 shell pairs
 There are      3149 function pairs
 Smallest overlap matrix eigenvalue = 1.73E-01
 Guess from superposition of atomic densities
 Warning:  Energy on first SCF cycle will be non-variational
 SAD guess density has 96.000000 electrons
 A restricted Hartree-Fock SCF calculation will be
 performed using Pulay DIIS + Geometric Direct Minimization
 SCF converges when RMS gradient is below 1.0E-04
 ---------------------------------------
  Cycle       Energy         DIIS Error
 ---------------------------------------
    1    -566.3708510643      1.30E-01
    2    -565.5685832192      1.40E-02
    3    -565.7008724437      1.27E-02
    4    -565.8437017932      1.50E-03 Done DIIS. Switching to GDM
    5    -565.8476164752      1.02E-02 Normal BFGS step
    6    -565.8479697329      5.55E-03 Normal BFGS step
    7    -565.8481274876      1.14E-03 Normal BFGS step
    8    -565.8481668418      9.89E-04 Normal BFGS step
    9    -565.8481716795      4.58E-04 Normal BFGS step
   10    -565.8481724610      1.15E-04 Normal BFGS step
   11    -565.8481725283      3.29E-05 Convergence criterion met
 ---------------------------------------
 SCF time:  CPU 1.49 s  wall 1.98 s
 SCF   energy in the small basis set = -565.84817253
 Total energy in the small basis set = -565.84817253
 ----------------------------------------------------
  Cycle       Energy    
 ----------------------------------------------------
    1     -71.4917921019     -7.15E+01
 A restricted Hartree-Fock SCF calculation will be
 performed using Pulay DIIS + Geometric Direct Minimization
 SCF converges when RMS gradient is below 1.0E-08
 ---------------------------------------
  Cycle       Energy        RMS Gradient
 ---------------------------------------
    1    -572.7304329065      9.09E-03 Done DIIS. Switching to GDM
    2    -572.8977645954      7.04E-02 Normal BFGS step
    3    -572.9011575079      1.22E-01 Normal BFGS step
    4    -572.9569824861      7.05E-03 Normal BFGS step
    5    -572.9574849822      3.63E-03 Normal BFGS step
    6    -572.9576735534      1.70E-03 Normal BFGS step
    7    -572.9577096511      1.12E-03 Normal BFGS step
    8    -572.9577225285      3.33E-04 Normal BFGS step
    9    -572.9577236625      1.20E-04 Normal BFGS step
   10    -572.9577238967      7.25E-05 Normal BFGS step
   11    -572.9577239368      3.27E-05 Normal BFGS step
   12    -572.9577239453      1.54E-05 Normal BFGS step
   13    -572.9577239481      4.16E-06 Normal BFGS step
   14    -572.9577239485      9.98E-07 Normal BFGS step
   15    -572.9577239485      6.13E-07 Normal BFGS step
   16    -572.9577239485      2.88E-07 Normal BFGS step
   17    -572.9577239485      7.67E-08 Normal BFGS step
   GDM::WARNING energy changes are now smaller than effective accuracy.
   GDM::        calculation will continue, but THRESH should be increased
   GDM::        or SCF_CONVERGENCE decreased.
   GDM::        effective_thresh =   5.360298177548017E-010
   18    -572.9577239485      2.13E-08 Normal BFGS step
   19    -572.9577239485      8.87E-09 Convergence criterion met
 ---------------------------------------
 SCF time:  CPU 64.26 s  wall 67.27 s
 SCF   energy in the final basis set = -572.95772395
 Total energy in the final basis set = -572.95772395


 ------------------------------------------------------------------------------

   CCMAN2: suite of methods based on coupled cluster
           and equation of motion theories.

   Components:
   * libvmm-1.3-trunk
     by Evgeny Epifanovsky, Ilya Kaliman.
   * libtensor-2.5-trunk
     by Evgeny Epifanovsky, Michael Wormit, Dmitry Zuev, Sam Manzer, 
        Ilya Kaliman.
   * libcc-2.5-trunk
     by Evgeny Epifanovsky, Arik Landau, Tomasz Kus, Kirill Khistyaev, 
        Dmitry Zuev, Prashant Manohar, Xintian Feng, Anna Krylov, 
        Matthew Goldey, Alec White, Thomas Jagau, Kaushik Nanda, 
        Anastasia Gunina, Alexander Kunitsa, Joonho Lee.

   CCMAN original authors:
   Anna I. Krylov, C. David Sherrill, Steven R. Gwaltney,
   Edward F. C. Byrd (2000)
   Sergey V. Levchenko, Lyudmila V. Slipchenko, Tao Wang,
   Ana-Maria C. Cristian (2003)
   Piotr A. Pieniazek, C. Melania Oana, Evgeny Epifanovsky (2007)
   Prashant Manohar (2009)

 ------------------------------------------------------------------------------


 Allocating and initializing 80000MB of RAM...
 Calculation will run on 1 core.

 
 Alpha MOs, Restricted
 -- Occupied --                  
-20.530 -11.334 -11.255 -11.255 -11.255 -11.255 -11.252 -11.252
  1 A     2 A     1 B     3 A     4 A     2 B     3 B     5 A                  
-11.249 -11.249 -11.245 -11.245 -11.242 -11.242  -1.313  -1.163
  4 B     6 A     7 A     5 B     8 A     6 B     9 A    10 A                  
 -1.158  -1.057  -1.027  -1.025  -1.023  -0.905  -0.848  -0.834
  7 B    11 A     8 B    12 A     9 B    13 A    10 B    14 A                  
 -0.826  -0.766  -0.722  -0.697  -0.664  -0.641  -0.632  -0.623
 11 B    15 A    12 B    16 A    13 B    17 A    14 B    18 A                  
 -0.602  -0.597  -0.595  -0.572  -0.535  -0.526  -0.516  -0.507
 15 B    19 A    16 B    20 A    17 B    21 A    18 B    22 A                  
 -0.497  -0.491  -0.461  -0.417  -0.348  -0.344  -0.338  -0.333
 19 B    23 A    20 B    21 B    24 A    22 B    25 A    23 B                  
 -- Virtual --                   
  0.055   0.121   0.134   0.141   0.232   0.232   0.238   0.283
 24 B    26 A    27 A    25 B    28 A    26 B    27 B    29 A                  
  0.290   0.302   0.307   0.325   0.326   0.334   0.344   0.345
 28 B    30 A    29 B    31 A    30 B    32 A    33 A    31 B                  
  0.392   0.417   0.444   0.450   0.456   0.472   0.472   0.502
 32 B    34 A    35 A    33 B    36 A    37 A    34 B    35 B                  
  0.517   0.530   0.555   0.621   0.669   0.676   0.720   0.730
 36 B    38 A    39 A    37 B    40 A    38 B    41 A    39 B                  
  0.737   0.745   0.751   0.754   0.761   0.779   0.809   0.812
 42 A    40 B    43 A    44 A    41 B    42 B    45 A    43 B                  
  0.813   0.819   0.824   0.827   0.830   0.831   0.835   0.849
 46 A    44 B    47 A    45 B    48 A    46 B    49 A    50 A                  
  0.860   0.872   0.889   0.890   0.916   0.924   0.932   0.993
 47 B    48 B    51 A    49 B    50 B    52 A    53 A    51 B                  
  0.996   1.029   1.036   1.086   1.088   1.100   1.101   1.104
 54 A    55 A    52 B    53 B    56 A    57 A    54 B    58 A                  
  1.107   1.111   1.129   1.147   1.154   1.158   1.178   1.181
 55 B    59 A    56 B    57 B    60 A    58 B    61 A    59 B                  
  1.193   1.205   1.225   1.239   1.271   1.284   1.292   1.321
 62 A    60 B    61 B    63 A    62 B    64 A    65 A    66 A                  
  1.335   1.351   1.360   1.393   1.400   1.427   1.428   1.488
 63 B    64 B    67 A    68 A    65 B    69 A    66 B    67 B                  
  1.510   1.516   1.550   1.562   1.564   1.661   1.679   1.687
 70 A    68 B    69 B    70 B    71 A    72 A    71 B    73 A                  
  1.706   1.714   1.716   1.729   1.754   1.758   1.762   1.783
 74 A    72 B    75 A    73 B    74 B    75 B    76 A    76 B                  
  1.784   1.787   1.800   1.898   2.041   2.067   2.080   2.092
 77 A    77 B    78 A    79 A    78 B    80 A    79 B    81 A                  
  2.115   2.124   2.130   2.135   2.167   2.168   2.232   2.234
 82 A    80 B    81 B    83 A    82 B    84 A    83 B    85 A                  
  2.276   2.296   2.304   2.321   2.335   2.359   2.371   2.394
 86 A    87 A    84 B    88 A    89 A    85 B    90 A    86 B                  
  2.433   2.446   2.451   2.464   2.464   2.480   2.484   2.555
 87 B    91 A    88 B    89 B    92 A    93 A    90 B    94 A                  
  2.583   2.586   2.620   2.634   2.638   2.649   2.650   2.723
 95 A    91 B    92 B    93 B    96 A    97 A    94 B    98 A                  
  2.791   2.863   2.866   2.896   2.918   2.937   2.945   2.985
 95 B    99 A    96 B    97 B   100 A   101 A    98 B    99 B                  
  2.986   3.056   3.069   3.091   3.095   3.100   3.108   3.150
102 A   103 A   100 B   104 A   105 A   101 B   102 B   103 B                  
  3.153   3.244   3.302   3.324   3.511   3.567   3.785   3.804
106 A   107 A   104 B   108 A   105 B   109 A   110 A   106 B                  
  4.369   4.505   4.506   4.534   4.538   4.552   4.557   4.719
111 A   112 A   107 B   108 B   113 A   109 B   114 A   115 A                  
  4.742   4.756   4.764   4.893   5.083   5.190
110 B   116 A   111 B   117 A   112 B   118 A                                  
 
 Beta MOs, Restricted
 -- Occupied --                  
-20.530 -11.334 -11.255 -11.255 -11.255 -11.255 -11.252 -11.252
  1 A     2 A     1 B     3 A     4 A     2 B     3 B     5 A                  
-11.249 -11.249 -11.245 -11.245 -11.242 -11.242  -1.313  -1.163
  4 B     6 A     7 A     5 B     8 A     6 B     9 A    10 A                  
 -1.158  -1.057  -1.027  -1.025  -1.023  -0.905  -0.848  -0.834
  7 B    11 A     8 B    12 A     9 B    13 A    10 B    14 A                  
 -0.826  -0.766  -0.722  -0.697  -0.664  -0.641  -0.632  -0.623
 11 B    15 A    12 B    16 A    13 B    17 A    14 B    18 A                  
 -0.602  -0.597  -0.595  -0.572  -0.535  -0.526  -0.516  -0.507
 15 B    19 A    16 B    20 A    17 B    21 A    18 B    22 A                  
 -0.497  -0.491  -0.461  -0.417  -0.348  -0.344  -0.338  -0.333
 19 B    23 A    20 B    21 B    24 A    22 B    25 A    23 B                  
 -- Virtual --                   
  0.055   0.121   0.134   0.141   0.232   0.232   0.238   0.283
 24 B    26 A    27 A    25 B    28 A    26 B    27 B    29 A                  
  0.290   0.302   0.307   0.325   0.326   0.334   0.344   0.345
 28 B    30 A    29 B    31 A    30 B    32 A    33 A    31 B                  
  0.392   0.417   0.444   0.450   0.456   0.472   0.472   0.502
 32 B    34 A    35 A    33 B    36 A    37 A    34 B    35 B                  
  0.517   0.530   0.555   0.621   0.669   0.676   0.720   0.730
 36 B    38 A    39 A    37 B    40 A    38 B    41 A    39 B                  
  0.737   0.745   0.751   0.754   0.761   0.779   0.809   0.812
 42 A    40 B    43 A    44 A    41 B    42 B    45 A    43 B                  
  0.813   0.819   0.824   0.827   0.830   0.831   0.835   0.849
 46 A    44 B    47 A    45 B    48 A    46 B    49 A    50 A                  
  0.860   0.872   0.889   0.890   0.916   0.924   0.932   0.993
 47 B    48 B    51 A    49 B    50 B    52 A    53 A    51 B                  
  0.996   1.029   1.036   1.086   1.088   1.100   1.101   1.104
 54 A    55 A    52 B    53 B    56 A    57 A    54 B    58 A                  
  1.107   1.111   1.129   1.147   1.154   1.158   1.178   1.181
 55 B    59 A    56 B    57 B    60 A    58 B    61 A    59 B                  
  1.193   1.205   1.225   1.239   1.271   1.284   1.292   1.321
 62 A    60 B    61 B    63 A    62 B    64 A    65 A    66 A                  
  1.335   1.351   1.360   1.393   1.400   1.427   1.428   1.488
 63 B    64 B    67 A    68 A    65 B    69 A    66 B    67 B                  
  1.510   1.516   1.550   1.562   1.564   1.661   1.679   1.687
 70 A    68 B    69 B    70 B    71 A    72 A    71 B    73 A                  
  1.706   1.714   1.716   1.729   1.754   1.758   1.762   1.783
 74 A    72 B    75 A    73 B    74 B    75 B    76 A    76 B                  
  1.784   1.787   1.800   1.898   2.041   2.067   2.080   2.092
 77 A    77 B    78 A    79 A    78 B    80 A    79 B    81 A                  
  2.115   2.124   2.130   2.135   2.167   2.168   2.232   2.234
 82 A    80 B    81 B    83 A    82 B    84 A    83 B    85 A                  
  2.276   2.296   2.304   2.321   2.335   2.359   2.371   2.394
 86 A    87 A    84 B    88 A    89 A    85 B    90 A    86 B                  
  2.433   2.446   2.451   2.464   2.464   2.480   2.484   2.555
 87 B    91 A    88 B    89 B    92 A    93 A    90 B    94 A                  
  2.583   2.586   2.620   2.634   2.638   2.649   2.650   2.723
 95 A    91 B    92 B    93 B    96 A    97 A    94 B    98 A                  
  2.791   2.863   2.866   2.896   2.918   2.937   2.945   2.985
 95 B    99 A    96 B    97 B   100 A   101 A    98 B    99 B                  
  2.986   3.056   3.069   3.091   3.095   3.100   3.108   3.150
102 A   103 A   100 B   104 A   105 A   101 B   102 B   103 B                  
  3.153   3.244   3.302   3.324   3.511   3.567   3.785   3.804
106 A   107 A   104 B   108 A   105 B   109 A   110 A   106 B                  
  4.369   4.505   4.506   4.534   4.538   4.552   4.557   4.719
111 A   112 A   107 B   108 B   113 A   109 B   114 A   115 A                  
  4.742   4.756   4.764   4.893   5.083   5.190
110 B   116 A   111 B   117 A   112 B   118 A                                  

 Occupation and symmetry of molecular orbitals

 Point group: C2 (2 irreducible representations).

                           A    B     All 
 ------------------------------------------
 All molecular orbitals:
  - Alpha                  118  112   230 
  - Beta                   118  112   230 
 ------------------------------------------
 Alpha orbitals:
  - Frozen occupied        8    6     14  
  - Active occupied        17   17    34  
  - Active virtual         93   89    182 
  - Frozen virtual         0    0     0   
 ------------------------------------------
 Beta orbitals:
  - Frozen occupied        8    6     14  
  - Active occupied        17   17    34  
  - Active virtual         93   89    182 
  - Frozen virtual         0    0     0   
 ------------------------------------------

 Import integrals:   CPU 0.00 s  wall 0.00 s

 Import integrals:   CPU 94.09 s  wall 99.06 s

 MP2 amplitudes:   CPU 2.83 s  wall 2.85 s

Running a double precision version
           CCSD T amplitudes will be solved using DIIS.

           Start     Size      MaxIter   EConv     TConv     
           3         7         100       1.00e-06  1.00e-04  
 ------------------------------------------------------------------------------
           Energy (a.u.)   Ediff      Tdiff       Comment
 ------------------------------------------------------------------------------
          -574.78420594                           
     1    -574.76738349   1.68e-02   1.32e+00     Step took 01.36.
     2    -574.83304816   6.57e-02   1.87e-01     
     3    -574.83078177   2.27e-03   7.08e-02     
     4    -574.83761657   6.83e-03   2.95e-02     Switched to DIIS steps.
     5    -574.84058452   2.97e-03   1.92e-02     
     6    -574.84107942   4.95e-04   7.66e-03     
     7    -574.84107691   2.51e-06   2.63e-03     
     8    -574.84105539   2.15e-05   1.16e-03     
     9    -574.84106800   1.26e-05   5.63e-04     
    10    -574.84107193   3.92e-06   2.06e-04     
    11    -574.84107621   4.28e-06   1.21e-04     
    12    -574.84107729   1.08e-06   9.57e-05     
    13    -574.84107796   6.72e-07   6.36e-05     
 ------------------------------------------------------------------------------
          -574.84107796                           CCSD T converged.

End of double precision
 SCF energy                 = -572.95772395
 MP2 energy                 = -574.78420594
 CCSD correlation energy    =   -1.88335401
 CCSD total energy          = -574.84107796

 CCSD  T1^2 = 0.0324  T2^2 = 0.7347  Leading amplitudes:

 Amplitude    Orbitals with energies
  0.0500       23 (B) A                  ->    24 (B) A                   
              -0.3327                          0.0546                     
  0.0500       23 (B) B                  ->    24 (B) B                   
              -0.3327                          0.0546                     
  0.0452       20 (B) A                  ->    24 (B) A                   
              -0.4613                          0.0546                     
  0.0452       20 (B) B                  ->    24 (B) B                   
              -0.4613                          0.0546                     

 Amplitude    Orbitals with energies
 -0.0573       23 (B) A      23 (B) B    ->    24 (B) A      24 (B) B     
              -0.3327       -0.3327            0.0546        0.0546       
  0.0573       23 (B) A      23 (B) B    ->    24 (B) B      24 (B) A     
              -0.3327       -0.3327            0.0546        0.0546       
  0.0573       23 (B) B      23 (B) A    ->    24 (B) A      24 (B) B     
              -0.3327       -0.3327            0.0546        0.0546       
 -0.0573       23 (B) B      23 (B) A    ->    24 (B) B      24 (B) A     
              -0.3327       -0.3327            0.0546        0.0546       

 Computing CCSD intermediates for later calculations in double precision
 Finished.

Running a double precision version
           CCSD Lambda amplitudes will be solved using DIIS.
           Start     Size      MaxIter   EConv     LConv     
           3         7         100       1.00e-06  1.00e-04  
 ------------------------------------------------------------------------------
            Enorm      Ldiff       Comment
 ------------------------------------------------------------------------------
     1     1.05e-01   6.68e-02     
     2     3.61e-02   5.56e-03     
     3     1.96e-02   1.90e-03     
     4     6.63e-03   1.37e-03     Switched to DIIS steps.
     5     3.06e-03   9.17e-04     
     6     1.39e-03   5.19e-04     
     7     6.23e-04   1.69e-04     
     8     2.65e-04   5.02e-05     
     9     1.45e-04   7.21e-06     
    10     9.49e-05   3.20e-07     
    11     6.00e-05   1.27e-06     
    12     3.46e-05   1.95e-06     
    13     1.77e-05   1.23e-06     
    14     7.57e-06   1.02e-07     
    15     3.55e-06   7.30e-08     
    16     1.78e-06   2.26e-07     
    17     9.67e-07   1.67e-07     
 ------------------------------------------------------------------------------
                                   CCSD Lambda converged.

 Computing density matrices in double precision...
 Computing density matrices... Done.
 Reference state properties
 Dipole moment (a.u.): 1.237259 (X 0.000000, Y 0.000000, Z -1.237259)
 R-squared (a.u.): 3137.344026 (XX 2440.668412, YY 132.471553, ZZ 564.204061)
 Gauge origin (a.u.): (0.000000, 0.000000, 0.000000)
 Angular momentum (a.u.) against gauge origin: 
 (X 0.000000i, Y 0.000000i, Z 0.004732i)
 Traces of the OPDMs: Tr(AA) 48.000000, Tr(BB) 48.000000
 Density matrix was written to a file for further analysis.

 CCSD calculation:   CPU 2364.33 s  wall 2366.81 s

 Total ccman2 time:   CPU 2468.60 s  wall 2476.39 s

 
 --------------------------------------------------------------
             Orbital Energies (a.u.) and Symmetries
 --------------------------------------------------------------
 
 Alpha MOs, Restricted
 -- Occupied --                  
-20.530 -11.334 -11.255 -11.255 -11.255 -11.255 -11.252 -11.252
  1 A     2 A     1 B     3 A     4 A     2 B     3 B     5 A                  
-11.249 -11.249 -11.245 -11.245 -11.242 -11.242  -1.313  -1.163
  4 B     6 A     7 A     5 B     8 A     6 B     9 A    10 A                  
 -1.158  -1.057  -1.027  -1.025  -1.023  -0.905  -0.848  -0.834
  7 B    11 A     8 B    12 A     9 B    13 A    10 B    14 A                  
 -0.826  -0.766  -0.722  -0.697  -0.664  -0.641  -0.632  -0.623
 11 B    15 A    12 B    16 A    13 B    17 A    14 B    18 A                  
 -0.602  -0.597  -0.595  -0.572  -0.535  -0.526  -0.516  -0.507
 15 B    19 A    16 B    20 A    17 B    21 A    18 B    22 A                  
 -0.497  -0.491  -0.461  -0.417  -0.348  -0.344  -0.338  -0.333
 19 B    23 A    20 B    21 B    24 A    22 B    25 A    23 B                  
 -- Virtual --                   
  0.055   0.121   0.134   0.141   0.232   0.232   0.238   0.283
 24 B    26 A    27 A    25 B    28 A    26 B    27 B    29 A                  
  0.290   0.302   0.307   0.325   0.326   0.334   0.344   0.345
 28 B    30 A    29 B    31 A    30 B    32 A    33 A    31 B                  
  0.392   0.417   0.444   0.450   0.456   0.472   0.472   0.502
 32 B    34 A    35 A    33 B    36 A    37 A    34 B    35 B                  
  0.517   0.530   0.555   0.621   0.669   0.676   0.720   0.730
 36 B    38 A    39 A    37 B    40 A    38 B    41 A    39 B                  
  0.737   0.745   0.751   0.754   0.761   0.779   0.809   0.812
 42 A    40 B    43 A    44 A    41 B    42 B    45 A    43 B                  
  0.813   0.819   0.824   0.827   0.830   0.831   0.835   0.849
 46 A    44 B    47 A    45 B    48 A    46 B    49 A    50 A                  
  0.860   0.872   0.889   0.890   0.916   0.924   0.932   0.993
 47 B    48 B    51 A    49 B    50 B    52 A    53 A    51 B                  
  0.996   1.029   1.036   1.086   1.088   1.100   1.101   1.104
 54 A    55 A    52 B    53 B    56 A    57 A    54 B    58 A                  
  1.107   1.111   1.129   1.147   1.154   1.158   1.178   1.181
 55 B    59 A    56 B    57 B    60 A    58 B    61 A    59 B                  
  1.193   1.205   1.225   1.239   1.271   1.284   1.292   1.321
 62 A    60 B    61 B    63 A    62 B    64 A    65 A    66 A                  
  1.335   1.351   1.360   1.393   1.400   1.427   1.428   1.488
 63 B    64 B    67 A    68 A    65 B    69 A    66 B    67 B                  
  1.510   1.516   1.550   1.562   1.564   1.661   1.679   1.687
 70 A    68 B    69 B    70 B    71 A    72 A    71 B    73 A                  
  1.706   1.714   1.716   1.729   1.754   1.758   1.762   1.783
 74 A    72 B    75 A    73 B    74 B    75 B    76 A    76 B                  
  1.784   1.787   1.800   1.898   2.041   2.067   2.080   2.092
 77 A    77 B    78 A    79 A    78 B    80 A    79 B    81 A                  
  2.115   2.124   2.130   2.135   2.167   2.168   2.232   2.234
 82 A    80 B    81 B    83 A    82 B    84 A    83 B    85 A                  
  2.276   2.296   2.304   2.321   2.335   2.359   2.371   2.394
 86 A    87 A    84 B    88 A    89 A    85 B    90 A    86 B                  
  2.433   2.446   2.451   2.464   2.464   2.480   2.484   2.555
 87 B    91 A    88 B    89 B    92 A    93 A    90 B    94 A                  
  2.583   2.586   2.620   2.634   2.638   2.649   2.650   2.723
 95 A    91 B    92 B    93 B    96 A    97 A    94 B    98 A                  
  2.791   2.863   2.866   2.896   2.918   2.937   2.945   2.985
 95 B    99 A    96 B    97 B   100 A   101 A    98 B    99 B                  
  2.986   3.056   3.069   3.091   3.095   3.100   3.108   3.150
102 A   103 A   100 B   104 A   105 A   101 B   102 B   103 B                  
  3.153   3.244   3.302   3.324   3.511   3.567   3.785   3.804
106 A   107 A   104 B   108 A   105 B   109 A   110 A   106 B                  
  4.369   4.505   4.506   4.534   4.538   4.552   4.557   4.719
111 A   112 A   107 B   108 B   113 A   109 B   114 A   115 A                  
  4.742   4.756   4.764   4.893   5.083   5.190
110 B   116 A   111 B   117 A   112 B   118 A                                  
 
 Beta MOs, Restricted
 -- Occupied --                  
-20.530 -11.334 -11.255 -11.255 -11.255 -11.255 -11.252 -11.252
  1 A     2 A     1 B     3 A     4 A     2 B     3 B     5 A                  
-11.249 -11.249 -11.245 -11.245 -11.242 -11.242  -1.313  -1.163
  4 B     6 A     7 A     5 B     8 A     6 B     9 A    10 A                  
 -1.158  -1.057  -1.027  -1.025  -1.023  -0.905  -0.848  -0.834
  7 B    11 A     8 B    12 A     9 B    13 A    10 B    14 A                  
 -0.826  -0.766  -0.722  -0.697  -0.664  -0.641  -0.632  -0.623
 11 B    15 A    12 B    16 A    13 B    17 A    14 B    18 A                  
 -0.602  -0.597  -0.595  -0.572  -0.535  -0.526  -0.516  -0.507
 15 B    19 A    16 B    20 A    17 B    21 A    18 B    22 A                  
 -0.497  -0.491  -0.461  -0.417  -0.348  -0.344  -0.338  -0.333
 19 B    23 A    20 B    21 B    24 A    22 B    25 A    23 B                  
 -- Virtual --                   
  0.055   0.121   0.134   0.141   0.232   0.232   0.238   0.283
 24 B    26 A    27 A    25 B    28 A    26 B    27 B    29 A                  
  0.290   0.302   0.307   0.325   0.326   0.334   0.344   0.345
 28 B    30 A    29 B    31 A    30 B    32 A    33 A    31 B                  
  0.392   0.417   0.444   0.450   0.456   0.472   0.472   0.502
 32 B    34 A    35 A    33 B    36 A    37 A    34 B    35 B                  
  0.517   0.530   0.555   0.621   0.669   0.676   0.720   0.730
 36 B    38 A    39 A    37 B    40 A    38 B    41 A    39 B                  
  0.737   0.745   0.751   0.754   0.761   0.779   0.809   0.812
 42 A    40 B    43 A    44 A    41 B    42 B    45 A    43 B                  
  0.813   0.819   0.824   0.827   0.830   0.831   0.835   0.849
 46 A    44 B    47 A    45 B    48 A    46 B    49 A    50 A                  
  0.860   0.872   0.889   0.890   0.916   0.924   0.932   0.993
 47 B    48 B    51 A    49 B    50 B    52 A    53 A    51 B                  
  0.996   1.029   1.036   1.086   1.088   1.100   1.101   1.104
 54 A    55 A    52 B    53 B    56 A    57 A    54 B    58 A                  
  1.107   1.111   1.129   1.147   1.154   1.158   1.178   1.181
 55 B    59 A    56 B    57 B    60 A    58 B    61 A    59 B                  
  1.193   1.205   1.225   1.239   1.271   1.284   1.292   1.321
 62 A    60 B    61 B    63 A    62 B    64 A    65 A    66 A                  
  1.335   1.351   1.360   1.393   1.400   1.427   1.428   1.488
 63 B    64 B    67 A    68 A    65 B    69 A    66 B    67 B                  
  1.510   1.516   1.550   1.562   1.564   1.661   1.679   1.687
 70 A    68 B    69 B    70 B    71 A    72 A    71 B    73 A                  
  1.706   1.714   1.716   1.729   1.754   1.758   1.762   1.783
 74 A    72 B    75 A    73 B    74 B    75 B    76 A    76 B                  
  1.784   1.787   1.800   1.898   2.041   2.067   2.080   2.092
 77 A    77 B    78 A    79 A    78 B    80 A    79 B    81 A                  
  2.115   2.124   2.130   2.135   2.167   2.168   2.232   2.234
 82 A    80 B    81 B    83 A    82 B    84 A    83 B    85 A                  
  2.276   2.296   2.304   2.321   2.335   2.359   2.371   2.394
 86 A    87 A    84 B    88 A    89 A    85 B    90 A    86 B                  
  2.433   2.446   2.451   2.464   2.464   2.480   2.484   2.555
 87 B    91 A    88 B    89 B    92 A    93 A    90 B    94 A                  
  2.583   2.586   2.620   2.634   2.638   2.649   2.650   2.723
 95 A    91 B    92 B    93 B    96 A    97 A    94 B    98 A                  
  2.791   2.863   2.866   2.896   2.918   2.937   2.945   2.985
 95 B    99 A    96 B    97 B   100 A   101 A    98 B    99 B                  
  2.986   3.056   3.069   3.091   3.095   3.100   3.108   3.150
102 A   103 A   100 B   104 A   105 A   101 B   102 B   103 B                  
  3.153   3.244   3.302   3.324   3.511   3.567   3.785   3.804
106 A   107 A   104 B   108 A   105 B   109 A   110 A   106 B                  
  4.369   4.505   4.506   4.534   4.538   4.552   4.557   4.719
111 A   112 A   107 B   108 B   113 A   109 B   114 A   115 A                  
  4.742   4.756   4.764   4.893   5.083   5.190
110 B   116 A   111 B   117 A   112 B   118 A                                  
 --------------------------------------------------------------
 
          Ground-State Mulliken Net Atomic Charges

     Atom                 Charge (a.u.)
  ----------------------------------------
      1 C                     0.330578
      2 O                    -0.472962
      3 C                    -0.025710
      4 C                    -0.025710
      5 C                    -0.181218
      6 C                    -0.152017
      7 C                    -0.175815
      8 C                    -0.177556
      9 C                    -0.160467
     10 H                     0.193203
     11 H                     0.210627
     12 H                     0.177629
     13 H                     0.181130
     14 H                     0.181385
     15 C                    -0.181218
     16 C                    -0.152017
     17 C                    -0.177556
     18 C                    -0.175815
     19 C                    -0.160467
     20 H                     0.193203
     21 H                     0.177629
     22 H                     0.210627
     23 H                     0.181130
     24 H                     0.181385
  ----------------------------------------
  Sum of atomic charges =     0.000000

 -----------------------------------------------------------------
                    Cartesian Multipole Moments
 -----------------------------------------------------------------
    Charge (ESU x 10^10)
                -0.0000
    Dipole Moment (Debye)
         X      -0.0000      Y      -0.0000      Z      -3.1448
       Tot       3.1448
    Quadrupole Moments (Debye-Ang)
        XX     -63.8361     XY      -2.3219     YY     -82.3964
        XZ      -0.0000     YZ      -0.0000     ZZ     -81.6643
    Octopole Moments (Debye-Ang^2)
       XXX      -0.0000    XXY       0.0000    XYY      -0.0000
       YYY      -0.0000    XXZ      -3.2290    XYZ     -15.1587
       YYZ       4.0191    XZZ      -0.0000    YZZ       0.0000
       ZZZ     -17.5406
    Hexadecapole Moments (Debye-Ang^3)
      XXXX   -2963.1734   XXXY     -54.7344   XXYY    -633.3674
      XYYY      -3.8138   YYYY    -188.1718   XXXZ      -0.0000
      XXYZ       0.0000   XYYZ      -0.0000   YYYZ      -0.0000
      XXZZ    -628.4751   XYZZ       4.5807   YYZZ    -144.6451
      XZZZ      -0.0000   YZZZ      -0.0000   ZZZZ    -752.9943
 -----------------------------------------------------------------
 Total job time:  2576.92s(wall), 2562.03s(cpu) 
 Thu Jan 25 20:33:29 2024

        *************************************************************
        *                                                           *
        *  Thank you very much for using Q-Chem.  Have a nice day.  *
        *                                                           *
        *************************************************************


