                  Welcome to Q-Chem
     A Quantum Leap Into The Future Of Chemistry


 Q-Chem 6.0 (devel), Q-Chem, Inc., Pleasanton, CA (2022)

 E. Epifanovsky,  A. T. B. Gilbert,  Xintian Feng,  Joonho Lee,  Yuezhi Mao,  
 N. Mardirossian,  P. Pokhilko,  A. White,  M. Wormit,  M. P. Coons,  
 A. L. Dempwolff,  Zhengting Gan,  D. Hait,  P. R. Horn,  L. D. Jacobson,  
 I. Kaliman,  J. Kussmann,  A. W. Lange,  Ka Un Lao,  D. S. Levine,  Jie Liu,  
 S. C. McKenzie,  A. F. Morrison,  K. Nanda,  F. Plasser,  D. R. Rehn,  
 M. L. Vidal,  Zhi-Qiang You,  Ying Zhu,  B. Alam,  B. Albrecht,  
 A. Aldossary,  E. Alguire,  J. H. Andersen,  V. Athavale,  D. Barton,  
 K. Begam,  A. Behn,  N. Bellonzi,  Y. A. Bernard,  E. J. Berquist,  
 H. Burton,  A. Carreras,  K. Carter-Fenk,  Romit Chakraborty,  
 Chandrima Chakravarty,  Junhan Chen,  A. D. Chien,  K. D. Closser,  
 V. Cofer-Shabica,  L. Cunha,  S. Dasgupta,  Jia Deng,  M. de Wergifosse,  
 M. Diedenhofen,  Hainam Do,  S. Ehlert,  Po-Tung Fang,  S. Fatehi,  
 Qingguo Feng,  T. Friedhoff,  B. Ganoe,  J. Gayvert,  Qinghui Ge,  
 G. Gidofalvi,  M. Goldey,  J. Gomes,  C. Gonzalez-Espinoza,  S. Gulania,  
 A. Gunina,  J. A. Gyamfi,  M. W. D. Hanson-Heine,  P. H. P. Harbach,  
 A. W. Hauser,  M. F. Herbst,  M. Hernandez Vera,  M. Hodecker,  
 Z. C. Holden,  S. Houck,  Xunkun Huang,  Kerwin Hui,  B. C. Huynh,  
 K. Ikeda,  M. Ivanov,  Hyunjun Ji,  Zuxin Jin,  Hanjie Jiang,  B. Kaduk,  
 S. Kaehler,  R. Kang,  K. Khistyaev,  Jaehoon Kim,  Yongbin Kim,  
 P. Klunzinger,  Z. Koczor-Benda,  Joong Hoon Koh,  D. Kosenkov,  
 Saikiran Kotaru,  L. Koulias,  T. Kowalczyk,  C. M. Krauter,  K. Kue,  
 A. Kunitsa,  T. Kus,  A. Landau,  K. V. Lawler,  D. Lefrancois,  S. Lehtola,  
 Rain Li,  Shaozhi Li,  Yi-Pei Li,  Jiashu Liang,  M. Liebenthal,  
 Hung-Hsuan Lin,  You-Sheng Lin,  Fenglai Liu,  Kuan-Yu Liu,  
 M. Loipersberger,  A. Luenser,  C. Malbon,  A. Manjanath,  P. Manohar,  
 E. Mansoor,  S. F. Manzer,  Shan-Ping Mao,  A. V. Marenich,  T. Markovich,  
 S. Mason,  F. Matz,  S. A. Maurer,  P. F. McLaughlin,  M. F. S. J. Menger,  
 J.-M. Mewes,  S. A. Mewes,  P. Morgante,  Mohammad Mostafanejad,  
 J. W. Mullinax,  K. J. Oosterbaan,  G. Paran,  V. Parravicini,  
 Alexander C. Paul,  Suranjan K. Paul,  F. Pavosevic,  Zheng Pei,  S. Prager,  
 E. I. Proynov,  E. Ramos,  B. Rana,  A. E. Rask,  A. Rettig,  R. M. Richard,  
 F. Rob,  E. Rossomme,  T. Scheele,  M. Scheurer,  M. Schneider,  
 P. E. Schneider,  N. Sergueev,  S. M. Sharada,  Hengyuan Shen,  
 W. Skomorowski,  D. W. Small,  C. J. Stein,  Yingli Su,  Yu-Chuan Su,  
 E. J. Sundstrom,  Zhen Tao,  J. Thirman,  Hung-Yi Tsai,  T. Tsuchimochi,  
 N. M. Tubman,  C. Utku,  S. P. Veccham,  O. Vydrov,  J. Wenzel,  
 Jonathan Wong,  J. Witte,  A. Yamada,  Chou-Hsun Yang,  Kun Yao,  
 S. Yeganeh,  S. R. Yost,  A. Zech,  F. Zeller,  Igor Ying Zhang,  
 Xing Zhang,  Yu Zhang,  D. Zuev,  A. Aspuru-Guzik,  A. T. Bell,  
 N. A. Besley,  K. B. Bravaya,  B. R. Brooks,  D. Casanova,  Jeng-Da Chai,  
 Hsing-Ta Chen,  S. Coriani,  C. J. Cramer,  A. E. DePrince, III,  
 R. A. DiStasio Jr.,  A. Dreuw,  B. D. Dunietz,  T. R. Furlani,  
 W. A. Goddard III,  S. Grimme,  S. Hammes-Schiffer,  T. Head-Gordon,  
 W. J. Hehre,  Chao-Ping Hsu,  T.-C. Jagau,  Yousung Jung,  A. Klamt,  
 Jing Kong,  D. S. Lambrecht,  Xiangyuan Li,  WanZhen Liang,  N. J. Mayhall,  
 C. W. McCurdy,  J. B. Neaton,  T. Neudecker,  C. Ochsenfeld,  
 J. A. Parkhill,  R. Peverati,  V. A. Rassolov,  Haisheng Ren,  Yihan Shao,  
 L. V. Slipchenko,  R. P. Steele,  J. E. Subotnik,  A. J. W. Thom,  
 A. Tkatchenko,  D. G. Truhlar,  T. Van Voorhis,  Fan Wang,  
 T. A. Wesolowski,  K. B. Whaley,  H. L. Woodcock III,  P. M. Zimmerman,  
 S. Faraji,  P. M. W. Gill,  M. Head-Gordon,  J. M. Herbert,  A. I. Krylov

 Contributors to earlier versions of Q-Chem not listed above: 
 R. D. Adamson,  B. Austin,  R. Baer,  J. Baker,  G. J. O. Beran,  
 K. Brandhorst,  S. T. Brown,  E. F. C. Byrd,  Arup K. Chakraborty,  
 G. K. L. Chan,  Chun-Min Chang,  Yunqing Chen,  C.-L. Cheng,  
 Siu Hung Chien,  D. M. Chipman,  D. L. Crittenden,  H. Dachsel,  
 R. J. Doerksen,  A. D. Dutoi,  R. G. Edgar,  J. Fosso-Tande,  
 L. Fusti-Molnar,  D. Ghosh,  A. Ghysels,  A. Golubeva-Zadorozhnaya,  
 J. Gonthier,  M. S. Gordon,  S. R. Gwaltney,  G. Hawkins,  J. E. Herr,  
 A. Heyden,  S. Hirata,  E. G. Hohenstein,  G. Kedziora,  F. J. Keil,  
 C. Kelley,  Jihan Kim,  R. A. King,  R. Z. Khaliullin,  P. P. Korambath,  
 W. Kurlancheek,  A. Laurent,  A. M. Lee,  M. S. Lee,  S. V. Levchenko,  
 Ching Yeh Lin,  D. Liotard,  E. Livshits,  R. C. Lochan,  I. Lotan,  
 L. A. Martinez-Martinez,  P. E. Maslen,  N. Nair,  D. P. O'Neill,  
 D. Neuhauser,  E. Neuscamman,  C. M. Oana,  R. Olivares-Amaya,  R. Olson,  
 T. M. Perrine,  B. Peters,  P. A. Pieniazek,  A. Prociuk,  Y. M. Rhee,  
 J. Ritchie,  M. A. Rohrdanz,  E. Rosta,  N. J. Russ,  H. F. Schaefer III,  
 M. W. Schmidt,  N. E. Schultz,  S. Sharma,  N. Shenvi,  C. D. Sherrill,  
 A. C. Simmonett,  A. Sodt,  T. Stein,  D. Stuck,  K. S. Thanthiriwatte,  
 V. Vanovschi,  L. Vogt,  Tao Wang,  A. Warshel,  M. A. Watson,  
 C. F. Williams,  Q. Wu,  X. Xu,  Jun Yang,  W. Zhang,  Yan Zhao

   Please cite Q-Chem as follows:
  "Software for the frontiers of quantum chemistry:
   An overview of developments in the Q-Chem 5 package"
   J. Chem. Phys. 155, 084801 (2021)
   https://doi.org/10.1063/5.0055522 (open access)

 Q-Chem 6.0.1 for Intel X86 EM64T Linux

 Parts of Q-Chem use Armadillo 9.900.5 (Nocturnal Misbehaviour).
 http://arma.sourceforge.net/

 Q-Chem begins on Thu Jan 25 18:11:05 2024  

 Host: atlas-121
0

     Scratch files written to ./qchem83526//
 Processing $rem in /scratch/abel/SOFTWARE/qchem/config/preferences:
 Processing $rem in /dipc/acebg/.qchemrc:
 Core orbitals will be frozen

 Checking the input file for inconsistencies... 	...done.

--------------------------------------------------------------
User input:
--------------------------------------------------------------
$comment
 RAS-SF CALCULATION
$end

$molecule
 READ fluorenone.molecule
$end

$rem
!**CALCULATION TYPE***     
JOBTYPE            sp    
BASIS              6-31G*
BASIS2             STO-3G

!***SCF REFERENCE***
INPUT_BOHR         TRUE
!SKIP_SCFMAN        FALSE
UNRESTRICTED       FALSE
!SCF_GUESS          core
!SCF_GUESS_MIX      FALSE
!SCF_GUESS_ALWAYS   FALSE
MAX_SCF_CYCLES     500
!SCF_CONVERGENCE    10
SCF_ALGORITHM      DIIS_GDM !DIIS,DM,DIIS_DM,GDM,DIIS_GDM,GD

!SYMMETRY           TRUE   !use of symmetry for calculating integrals
!SYM_IGNORE         FALSE  !turn off using symmetry
!SYM_TOL            5      !tolerance for determining point group
!USE_ABELIAN_SUBGROUP      !define to use abelian group

!THRESH             14
!SCF_FINAL_PRINT     1 !0,1,2,3

!****CCSD****
CORRELATION        CCSD
!CC_CONVERGENCE     6
!CC_MAX_ITER        200
CC_PRINT	   1
!CHOLESKY_TOL       3 !Toler. decomposition 2e integrals
CC_REF_PROP  	   1 !one-particle CCSD properties calculation
!CC_REF_PROP_TE	   0 !two-particle CCSD properties calculation
!CC_FNO_THRESH
!CC_BACKEND	   XM !Used to specify the computational back-end of CCMAN2.

!****MEMORY****
MEM_TOTAL          90000 !Default 2000 MB
MEM_STATIC         1000  !Default 64 MB
CC_MEMORY          72000

!**Molecular Properties and Analysis **                                                                                          
!POP_MULLIKEN       TRUE   !Run Mulliken population analysis
!LOWDIN_POPULATION  TRUE   !Run Löwdin population analysis
GUI                0       !Checkpoints generation
!STATE_ANALYSIS     TRUE

!**Wave function analysis**
!PLOTS = 0     ! Note: This can be omitted, default is 0
!NTO_PAIRS = 2 ! Note: This can be omitted, default is 2
!GUI 0
!MOLDEN_FORMAT      TRUE
!PRINT_ORBITALS     15
$end

!$plots
!   grid_points 100 100 100
!   grid_range  (-10,10) (-10,10) (-10,10)
!$end

--------------------------------------------------------------
 ----------------------------------------------------------------
             Standard Nuclear Orientation (Bohr)
    I     Atom           X                Y                Z
 ----------------------------------------------------------------
    1      C      -0.0000000000    -0.0000000000     3.0318066276
    2      O      -0.0000000000    -0.0000000000     5.3638644743
    3      C      -2.1864624130    -0.0000000000     1.3211263669
    4      C       2.1864624130     0.0000000000     1.3211263669
    5      C       1.3222785792     0.0000000000    -1.3152461482
    6      C       4.7555386627     0.0000000000     1.8776505802
    7      C       6.4695983050     0.0000000000    -0.0972082822
    8      C       3.1392439890     0.0000000000    -3.3016694193
    9      C       5.6496513315     0.0000000000    -2.6924387954
   10      H       5.3730975132     0.0000000000     3.8295121100
   11      H       2.5395104465     0.0000000000    -5.2593503586
   12      H       8.4790954600     0.0000000000     0.2945733557
   13      H       7.0667355415     0.0000000000    -4.1688986988
   14      C      -1.3222785792    -0.0000000000    -1.3152461482
   15      C      -4.7555386627    -0.0000000000     1.8776505802
   16      C      -3.1392439890    -0.0000000000    -3.3016694193
   17      C      -6.4695983050    -0.0000000000    -0.0972082822
   18      C      -5.6496513315    -0.0000000000    -2.6924387954
   19      H      -2.5395104465    -0.0000000000    -5.2593503586
   20      H      -5.3730975132    -0.0000000000     3.8295121100
   21      H      -8.4790954600    -0.0000000000     0.2945733557
   22      H      -7.0667355415    -0.0000000000    -4.1688986988
 ----------------------------------------------------------------
 Molecular Point Group                 C2v   NOp =  4
 Largest Abelian Subgroup              C2v   NOp =  4
 Nuclear Repulsion Energy =         775.12034816 hartrees
 There are       48 alpha and       46 beta electrons
 Requested basis set is 6-31G(d)
 There are 72 shells and 226 basis functions
 Total memory of 90000 MB is distributed as follows: 
   MEM_STATIC is set to 1000 MB
   QALLOC/CCMAN JOB total memory use is  89000 MB
 Warning: actual memory use might exceed 90000 MB

 Total QAlloc Memory Limit  90000 MB
 Mega-Array Size       978 MB
 MEM_STATIC part      1000 MB

 A cutoff of  1.0D-14 yielded   2220 shell pairs
 There are     23484 function pairs
 Smallest overlap matrix eigenvalue = 3.50E-04

 Scale SEOQF with 1.000000e-01/1.000000e+00/1.000000e-01

 Standard Electronic Orientation quadrupole field applied
 Nucleus-field energy     =    -0.0000000045 hartrees
 Requested basis set is STO-3G
 There are 36 shells and 78 basis functions
 A cutoff of  1.0D-14 yielded    577 shell pairs
 There are      3052 function pairs
 Smallest overlap matrix eigenvalue = 1.76E-01
 Constructing guess Fock matrix from core Hamiltonian
 Applying Wolfsberg-Helmholtz approximation
 A restricted Hartree-Fock SCF calculation will be
 performed using Geometric Direct Minimization
 SCF converges when RMS gradient is below 1.0E-04
 ---------------------------------------
  Cycle       Energy        RMS Gradient
 ---------------------------------------
    1    -562.9071883930      5.40E-01 Descent step
    2    -563.4687844783      3.98E-01 Descent step
    3    -563.9065938590      2.32E-01 Descent step
    4    -564.2366039972      1.45E-01 Descent step
    5    -564.4695535349      8.16E-02 Descent step
    6    -564.6116778127      5.24E-02 Dog-leg BFGS step
    7    -564.6679870186      2.32E-02 Normal BFGS step
    8    -564.6702340450      9.19E-03 Normal BFGS step
    9    -564.6705084641      3.00E-03 Normal BFGS step
   10    -564.6705718166      1.54E-03 Normal BFGS step
   11    -564.6705774865      5.91E-04 Normal BFGS step
   12    -564.6705785203      2.39E-04 Normal BFGS step
   13    -564.6705787722      1.08E-04 Normal BFGS step
   14    -564.6705788173      3.43E-05 Convergence criterion met
 ---------------------------------------
 SCF time:  CPU 2.09 s  wall 2.66 s
 SCF   energy in the small basis set = -564.67057882
 Total energy in the small basis set = -564.67057882
 ----------------------------------------------------
  Cycle       Energy    
 ----------------------------------------------------
    1     -70.8912322483     -7.09E+01
 A restricted Hartree-Fock SCF calculation will be
 performed using Geometric Direct Minimization
 SCF converges when RMS gradient is below 1.0E-08
 ---------------------------------------
  Cycle       Energy        RMS Gradient
 ---------------------------------------
    1    -571.4953339403      3.44E-01 Descent step
    2    -571.6379210572      9.17E-02 Descent step
    3    -571.7132941146      4.48E-02 Normal BFGS step
    4    -571.7256030756      1.88E-02 Normal BFGS step
    5    -571.7273618492      1.29E-02 Normal BFGS step
    6    -571.7278640261      7.65E-03 Normal BFGS step
    7    -571.7281055398      3.27E-03 Normal BFGS step
    8    -571.7281657957      2.25E-03 Normal BFGS step
    9    -571.7281771462      1.22E-03 Normal BFGS step
   10    -571.7281814375      3.33E-04 Normal BFGS step
   11    -571.7281822765      1.23E-04 Normal BFGS step
   12    -571.7281823543      3.91E-05 Normal BFGS step
   13    -571.7281823613      7.40E-06 Normal BFGS step
   14    -571.7281823619      6.26E-06 Normal BFGS step
   15    -571.7281823621      3.07E-06 Normal BFGS step
   16    -571.7281823621      1.64E-06 Normal BFGS step
   17    -571.7281823622      8.53E-07 Normal BFGS step
   18    -571.7281823622      2.76E-07 Normal BFGS step
   19    -571.7281823622      4.85E-08 Normal BFGS step
   20    -571.7281823622      2.21E-08 Normal BFGS step
   21    -571.7281823622      6.13E-09 Convergence criterion met
 ---------------------------------------
 SCF time:  CPU 85.10 s  wall 88.09 s
 SCF   energy in the final basis set = -571.72818236
 Total energy in the final basis set = -571.72818236


 ------------------------------------------------------------------------------

   CCMAN2: suite of methods based on coupled cluster
           and equation of motion theories.

   Components:
   * libvmm-1.3-trunk
     by Evgeny Epifanovsky, Ilya Kaliman.
   * libtensor-2.5-trunk
     by Evgeny Epifanovsky, Michael Wormit, Dmitry Zuev, Sam Manzer, 
        Ilya Kaliman.
   * libcc-2.5-trunk
     by Evgeny Epifanovsky, Arik Landau, Tomasz Kus, Kirill Khistyaev, 
        Dmitry Zuev, Prashant Manohar, Xintian Feng, Anna Krylov, 
        Matthew Goldey, Alec White, Thomas Jagau, Kaushik Nanda, 
        Anastasia Gunina, Alexander Kunitsa, Joonho Lee.

   CCMAN original authors:
   Anna I. Krylov, C. David Sherrill, Steven R. Gwaltney,
   Edward F. C. Byrd (2000)
   Sergey V. Levchenko, Lyudmila V. Slipchenko, Tao Wang,
   Ana-Maria C. Cristian (2003)
   Piotr A. Pieniazek, C. Melania Oana, Evgeny Epifanovsky (2007)
   Prashant Manohar (2009)

 ------------------------------------------------------------------------------


 Allocating and initializing 72000MB of RAM...
 Calculation will run on 1 core.

 
 Alpha MOs, Restricted
 -- Doubly Occupied --           
-20.511 -11.301 -11.270 -11.270 -11.269 -11.268 -11.263 -11.263
  1 A1    2 A1    3 A1    1 B1    4 A1    2 B1    5 A1    3 B1                 
-11.263 -11.263 -11.259 -11.259 -11.249 -11.249  -1.343  -1.210
  4 B1    6 A1    5 B1    7 A1    8 A1    6 B1    9 A1   10 A1                 
 -1.159  -1.097  -1.061  -1.040  -0.992  -0.929  -0.884  -0.827
  7 B1   11 A1   12 A1    8 B1    9 B1   13 A1   14 A1   10 B1                 
 -0.803  -0.777  -0.716  -0.703  -0.669  -0.642  -0.634  -0.618
 11 B1   15 A1   16 A1   12 B1   17 A1   18 A1   13 B1   14 B1                 
 -0.611  -0.602  -0.581  -0.598  -0.546  -0.539  -0.505  -0.500
 19 A1   15 B1   20 A1    1 B2   16 B1   21 A1   22 A1   17 B1                 
 -0.510  -0.516  -0.394  -0.424  -0.376  -0.386
  1 A2    2 B2   18 B1    3 B2    2 A2    4 B2                                 
 -- Singly Occupied (Occupied) --
 -0.319  -0.220
  3 A2    5 B2                                                                 
 -- Virtual --                   
  0.079   0.106   0.163   0.223   0.209   0.237   0.261   0.291
  6 B2    4 A2    5 A2   23 A1    7 B2   19 B1   24 A1   20 B1                 
  0.291   0.311   0.324   0.346   0.342   0.372   0.362   0.409
 25 A1   26 A1   21 B1   22 B1    8 B2   27 A1    6 A2   28 A1                 
  0.418   0.443   0.456   0.466   0.498   0.510   0.539   0.556
 23 B1   29 A1   30 A1   24 B1   31 A1   25 B1   26 B1   32 A1                 
  0.573   0.652   0.666   0.702   0.711   0.720   0.734   0.736
 27 B1   28 B1   33 A1   34 A1    9 B2   35 A1   29 B1   36 A1                 
  0.737   0.760   0.771   0.774   0.779   0.791   0.793   0.805
  7 A2   30 B1   10 B2   31 B1   37 A1   11 B2   32 B1   38 A1                 
  0.807   0.816   0.817   0.830   0.849   0.854   0.860   0.864
 39 A1    8 A2   33 B1   34 B1   35 B1    9 A2   40 A1   12 B2                 
  0.881   0.931   0.954   0.964   0.962   1.003   1.025   1.037
 13 B2   10 A2   14 B2   41 A1   11 A2   42 A1   15 B2   12 A2                 
  1.052   1.081   1.082   1.086   1.104   1.104   1.129   1.134
 43 A1   36 B1   44 A1   37 B1   45 A1   38 B1   39 B1   46 A1                 
  1.142   1.160   1.183   1.184   1.201   1.207   1.247   1.252
 40 B1   47 A1   48 A1   41 B1   49 A1   42 B1   43 B1   50 A1                 
  1.264   1.284   1.310   1.341   1.360   1.375   1.406   1.422
 51 A1   44 B1   45 B1   16 B2   52 A1   46 B1   53 A1   54 A1                 
  1.431   1.451   1.476   1.503   1.516   1.559   1.566   1.604
 47 B1   17 B2   48 B1   13 A2   55 A1   18 B2   14 A2   49 B1                 
  1.634   1.649   1.651   1.683   1.701   1.700   1.703   1.723
 19 B2   50 B1   56 A1   57 A1   51 B1   20 B2   15 A2   21 B2                 
  1.729   1.744   1.750   1.752   1.811   1.897   1.958   2.017
 58 A1   16 A2   22 B2   17 A2   52 B1   53 B1   59 A1   60 A1                 
  2.034   2.045   2.052   2.086   2.095   2.096   2.130   2.142
 18 A2   61 A1   54 B1   23 B2   55 B1   19 A2   62 A1   56 B1                 
  2.155   2.199   2.207   2.220   2.277   2.279   2.300   2.331
 63 A1   57 B1   64 A1   65 A1   66 A1   58 B1   67 A1   20 A2                 
  2.331   2.335   2.373   2.401   2.414   2.420   2.431   2.458
 24 B2   59 B1   68 A1   60 B1   69 A1   70 A1   25 B2   61 B1                 
  2.490   2.494   2.519   2.566   2.568   2.577   2.607   2.608
 21 A2   26 B2   62 B1   27 B2   22 A2   63 B1   23 A2   28 B2                 
  2.625   2.692   2.726   2.730   2.846   2.860   2.877   2.883
 71 A1   24 A2   64 B1   72 A1   73 A1   25 A2   29 B2   65 B1                 
  2.958   2.977   2.989   2.998   3.019   3.024   3.070   3.075
 74 A1   66 B1   75 A1   26 A2   76 A1   67 B1   68 B1   30 B2                 
  3.087   3.159   3.178   3.196   3.210   3.318   3.360   3.467
 77 A1   69 B1   70 B1   78 A1   79 A1   71 B1   80 A1   72 B1                 
  3.569   3.673   3.690   3.862   4.421   4.479   4.488   4.498
 81 A1   73 B1   82 A1   74 B1   83 A1   84 A1   75 B1   85 A1                 
  4.539   4.561   4.585   4.707   4.748   4.826   4.833   5.043
 76 B1   77 B1   86 A1   87 A1   78 B1   88 A1   79 B1   89 A1                 
  5.219   5.279
 80 B1   90 A1                                                                 
 
 Beta MOs, Restricted
 -- Doubly Occupied --           
-20.505 -11.298 -11.267 -11.267 -11.265 -11.264 -11.263 -11.263
  1 A1    2 A1    3 A1    1 B1    4 A1    2 B1    5 A1    3 B1                 
-11.257 -11.256 -11.258 -11.258 -11.249 -11.249  -1.323  -1.187
  4 B1    6 A1    5 B1    7 A1    8 A1    6 B1    9 A1   10 A1                 
 -1.145  -1.080  -1.047  -1.030  -0.967  -0.909  -0.873  -0.813
  7 B1   11 A1   12 A1    8 B1    9 B1   13 A1   14 A1   10 B1                 
 -0.794  -0.766  -0.711  -0.696  -0.662  -0.635  -0.629  -0.614
 11 B1   15 A1   16 A1   12 B1   17 A1   18 A1   13 B1   14 B1                 
 -0.606  -0.596  -0.573  -0.528  -0.540  -0.534  -0.499  -0.495
 19 A1   15 B1   20 A1    1 B2   16 B1   21 A1   22 A1   17 B1                 
 -0.465  -0.454  -0.383  -0.357  -0.342  -0.325
  1 A2    2 B2   18 B1    3 B2    2 A2    4 B2                                 
 -- Singly Occupied (Vacant) --  
 -0.038   0.069
  3 A2    5 B2                                                                 
 -- Virtual --                   
  0.117   0.171   0.210   0.225   0.263   0.239   0.262   0.293
  6 B2    4 A2    5 A2   23 A1    7 B2   19 B1   24 A1   20 B1                 
  0.294   0.314   0.326   0.347   0.401   0.378   0.410   0.415
 25 A1   26 A1   21 B1   22 B1    8 B2   27 A1    6 A2   28 A1                 
  0.425   0.450   0.461   0.471   0.506   0.517   0.543   0.569
 23 B1   29 A1   30 A1   24 B1   31 A1   25 B1   26 B1   32 A1                 
  0.581   0.666   0.674   0.708   0.729   0.732   0.744   0.743
 27 B1   28 B1   33 A1   34 A1    9 B2   35 A1   29 B1   36 A1                 
  0.751   0.768   0.785   0.781   0.787   0.808   0.804   0.814
  7 A2   30 B1   10 B2   31 B1   37 A1   11 B2   32 B1   38 A1                 
  0.815   0.823   0.822   0.836   0.859   0.873   0.868   0.878
 39 A1    8 A2   33 B1   34 B1   35 B1    9 A2   40 A1   12 B2                 
  0.898   0.942   0.969   0.972   0.986   1.009   1.050   1.064
 13 B2   10 A2   14 B2   41 A1   11 A2   42 A1   15 B2   12 A2                 
  1.055   1.083   1.085   1.089   1.106   1.106   1.132   1.137
 43 A1   36 B1   44 A1   37 B1   45 A1   38 B1   39 B1   46 A1                 
  1.146   1.165   1.188   1.188   1.204   1.213   1.251   1.258
 40 B1   47 A1   48 A1   41 B1   49 A1   42 B1   43 B1   50 A1                 
  1.268   1.290   1.316   1.374   1.365   1.379   1.412   1.426
 51 A1   44 B1   45 B1   16 B2   52 A1   46 B1   53 A1   54 A1                 
  1.436   1.471   1.482   1.522   1.522   1.583   1.594   1.610
 47 B1   17 B2   48 B1   13 A2   55 A1   18 B2   14 A2   49 B1                 
  1.658   1.653   1.658   1.689   1.707   1.715   1.713   1.737
 19 B2   50 B1   56 A1   57 A1   51 B1   20 B2   15 A2   21 B2                 
  1.738   1.757   1.758   1.764   1.819   1.903   1.970   2.031
 58 A1   16 A2   22 B2   17 A2   52 B1   53 B1   59 A1   60 A1                 
  2.045   2.051   2.058   2.101   2.099   2.114   2.135   2.146
 18 A2   61 A1   54 B1   23 B2   55 B1   19 A2   62 A1   56 B1                 
  2.162   2.206   2.210   2.224   2.284   2.286   2.311   2.345
 63 A1   57 B1   64 A1   65 A1   66 A1   58 B1   67 A1   20 A2                 
  2.345   2.339   2.381   2.406   2.420   2.431   2.446   2.471
 24 B2   59 B1   68 A1   60 B1   69 A1   70 A1   25 B2   61 B1                 
  2.498   2.509   2.524   2.576   2.582   2.580   2.618   2.618
 21 A2   26 B2   62 B1   27 B2   22 A2   63 B1   23 A2   28 B2                 
  2.630   2.706   2.731   2.739   2.852   2.875   2.887   2.890
 71 A1   24 A2   64 B1   72 A1   73 A1   25 A2   29 B2   65 B1                 
  2.963   2.983   2.991   3.009   3.023   3.027   3.072   3.091
 74 A1   66 B1   75 A1   26 A2   76 A1   67 B1   68 B1   30 B2                 
  3.092   3.166   3.182   3.204   3.214   3.323   3.366   3.471
 77 A1   69 B1   70 B1   78 A1   79 A1   71 B1   80 A1   72 B1                 
  3.573   3.677   3.693   3.864   4.428   4.482   4.491   4.502
 81 A1   73 B1   82 A1   74 B1   83 A1   84 A1   75 B1   85 A1                 
  4.545   4.563   4.588   4.709   4.752   4.831   4.836   5.048
 76 B1   77 B1   86 A1   87 A1   78 B1   88 A1   79 B1   89 A1                 
  5.223   5.284
 80 B1   90 A1                                                                 

 Occupation and symmetry of molecular orbitals

 Point group: C2v (4 irreducible representations).

                           A1   A2   B1   B2    All 
 ----------------------------------------------------
 All molecular orbitals:
  - Alpha                  90   26   80   30    226 
  - Beta                   90   26   80   30    226 
 ----------------------------------------------------
 Alpha orbitals:
  - Frozen occupied        8    0    6    0     14  
  - Active occupied        14   3    12   5     34  
  - Active virtual         68   23   62   25    178 
  - Frozen virtual         0    0    0    0     0   
 ----------------------------------------------------
 Beta orbitals:
  - Frozen occupied        8    0    6    0     14  
  - Active occupied        14   2    12   4     32  
  - Active virtual         68   24   62   26    180 
  - Frozen virtual         0    0    0    0     0   
 ----------------------------------------------------

 Import integrals:   CPU 0.00 s  wall 0.00 s

 Molecular orbitals will be canonicalized.
 Import integrals:   CPU 176.24 s  wall 185.39 s

 MP2 amplitudes:   CPU 2.56 s  wall 2.72 s

Running a double precision version
           CCSD T amplitudes will be solved using DIIS.

           Start     Size      MaxIter   EConv     TConv     
           3         7         100       1.00e-06  1.00e-04  
 ------------------------------------------------------------------------------
           Energy (a.u.)   Ediff      Tdiff       Comment
 ------------------------------------------------------------------------------
          -573.54148036                           
     1    -573.51519013   2.63e-02   1.31e+00     
     2    -573.58222371   6.70e-02   1.86e-01     
     3    -573.57842061   3.80e-03   7.38e-02     
     4    -573.58537546   6.95e-03   3.00e-02     Switched to DIIS steps.
     5    -573.58831040   2.93e-03   1.64e-02     
     6    -573.58882429   5.14e-04   6.04e-03     
     7    -573.58895337   1.29e-04   3.22e-03     
     8    -573.58902344   7.01e-05   2.36e-03     
     9    -573.58913818   1.15e-04   1.63e-03     
    10    -573.58917609   3.79e-05   9.48e-04     
    11    -573.58919521   1.91e-05   4.69e-04     
    12    -573.58919958   4.37e-06   4.00e-04     
    13    -573.58919734   2.24e-06   1.33e-04     
    14    -573.58919447   2.87e-06   6.64e-05     
    15    -573.58919266   1.81e-06   4.52e-05     
    16    -573.58919173   9.33e-07   1.92e-05     
 ------------------------------------------------------------------------------
          -573.58919173                           CCSD T converged.

End of double precision
 SCF energy                 = -571.72818236
 MP2 energy                 = -573.54110975
 CCSD correlation energy    =   -1.86100937
 CCSD total energy          = -573.58919173

 CCSD  T1^2 = 0.0579  T2^2 = 0.7166  Leading amplitudes:

 Amplitude    Orbitals with energies
  0.0948       5 (B2) A                  ->    6 (B2) A                   
              -0.2039                          0.0790                     
  0.0586       2 (B2) B                  ->    5 (B2) B                   
              -0.4544                          0.0640                     
 -0.0529       2 (A2) B                  ->    3 (A2) B                   
              -0.3416                         -0.0492                     
  0.0491       3 (B2) A                  ->    6 (B2) A                   
              -0.4268                          0.0790                     

 Amplitude    Orbitals with energies
 -0.0715       5 (B2) A      4 (B2) B    ->    4 (A2) A      3 (A2) B     
              -0.2039       -0.3229            0.1055       -0.0492       
  0.0715       5 (B2) A      4 (B2) B    ->    3 (A2) B      4 (A2) A     
              -0.2039       -0.3229           -0.0492        0.1055       
  0.0715       4 (B2) B      5 (B2) A    ->    4 (A2) A      3 (A2) B     
              -0.3229       -0.2039            0.1055       -0.0492       
 -0.0715       4 (B2) B      5 (B2) A    ->    3 (A2) B      4 (A2) A     
              -0.3229       -0.2039           -0.0492        0.1055       

 Computing CCSD intermediates for later calculations in double precision
 Finished.

Running a double precision version
           CCSD Lambda amplitudes will be solved using DIIS.
           Start     Size      MaxIter   EConv     LConv     
           3         7         100       1.00e-06  1.00e-04  
 ------------------------------------------------------------------------------
            Enorm      Ldiff       Comment
 ------------------------------------------------------------------------------
     1     1.09e-01   7.05e-02     
     2     3.52e-02   2.37e-03     
     3     1.83e-02   2.66e-03     
     4     9.23e-03   5.34e-04     Switched to DIIS steps.
     5     4.22e-03   4.74e-04     
     6     2.27e-03   7.96e-05     
     7     1.19e-03   1.33e-04     
     8     7.27e-04   1.70e-04     
     9     4.62e-04   1.17e-04     
    10     3.12e-04   7.61e-05     
    11     1.85e-04   5.83e-05     
    12     8.70e-05   3.69e-05     
    13     4.89e-05   1.26e-05     
    14     2.49e-05   7.40e-06     
    15     1.31e-05   1.99e-06     
    16     7.55e-06   1.18e-06     
    17     4.05e-06   2.88e-07     
    18     2.50e-06   2.56e-08     
    19     1.59e-06   5.32e-08     
    20     1.09e-06   1.15e-07     
    21     7.96e-07   9.53e-08     
 ------------------------------------------------------------------------------
                                   CCSD Lambda converged.

 Computing density matrices in double precision...
 Computing density matrices... Done.
 Reference state properties
 Dipole moment (a.u.): 1.740025 (X 0.000000, Y 0.000000, Z -1.740025)
 R-squared (a.u.): 2543.195669 (XX 1712.180372, YY 61.965308, ZZ 769.049988)
 Gauge origin (a.u.): (0.000000, 0.000000, 0.000000)
 Angular momentum (a.u.) against gauge origin: 
 (X 0.000000i, Y 0.000000i, Z 0.000000i)
 Traces of the OPDMs: Tr(AA) 48.000000, Tr(BB) 46.000000
 Density matrix was written to a file for further analysis.

 CCSD calculation:   CPU 1586.23 s  wall 1588.84 s

 Total ccman2 time:   CPU 1777.63 s  wall 1791.24 s

 
 --------------------------------------------------------------
             Orbital Energies (a.u.) and Symmetries
 --------------------------------------------------------------
 
 Alpha MOs, Restricted
 -- Doubly Occupied --           
-20.511 -11.301 -11.270 -11.270 -11.269 -11.268 -11.263 -11.263
  1 A1    2 A1    3 A1    1 B1    4 A1    2 B1    5 A1    3 B1                 
-11.263 -11.263 -11.259 -11.259 -11.249 -11.249  -1.343  -1.210
  4 B1    6 A1    5 B1    7 A1    8 A1    6 B1    9 A1   10 A1                 
 -1.159  -1.097  -1.061  -1.040  -0.992  -0.929  -0.884  -0.827
  7 B1   11 A1   12 A1    8 B1    9 B1   13 A1   14 A1   10 B1                 
 -0.803  -0.777  -0.716  -0.703  -0.669  -0.642  -0.634  -0.618
 11 B1   15 A1   16 A1   12 B1   17 A1   18 A1   13 B1   14 B1                 
 -0.611  -0.602  -0.581  -0.598  -0.546  -0.539  -0.505  -0.500
 19 A1   15 B1   20 A1    1 B2   16 B1   21 A1   22 A1   17 B1                 
 -0.510  -0.516  -0.394  -0.424  -0.376  -0.386
  1 A2    2 B2   18 B1    3 B2    2 A2    4 B2                                 
 -- Singly Occupied (Occupied) --
 -0.319  -0.220
  3 A2    5 B2                                                                 
 -- Virtual --                   
  0.079   0.106   0.163   0.223   0.209   0.237   0.261   0.291
  6 B2    4 A2    5 A2   23 A1    7 B2   19 B1   24 A1   20 B1                 
  0.291   0.311   0.324   0.346   0.342   0.372   0.362   0.409
 25 A1   26 A1   21 B1   22 B1    8 B2   27 A1    6 A2   28 A1                 
  0.418   0.443   0.456   0.466   0.498   0.510   0.539   0.556
 23 B1   29 A1   30 A1   24 B1   31 A1   25 B1   26 B1   32 A1                 
  0.573   0.652   0.666   0.702   0.711   0.720   0.734   0.736
 27 B1   28 B1   33 A1   34 A1    9 B2   35 A1   29 B1   36 A1                 
  0.737   0.760   0.771   0.774   0.779   0.791   0.793   0.805
  7 A2   30 B1   10 B2   31 B1   37 A1   11 B2   32 B1   38 A1                 
  0.807   0.816   0.817   0.830   0.849   0.854   0.860   0.864
 39 A1    8 A2   33 B1   34 B1   35 B1    9 A2   40 A1   12 B2                 
  0.881   0.931   0.954   0.964   0.962   1.003   1.025   1.037
 13 B2   10 A2   14 B2   41 A1   11 A2   42 A1   15 B2   12 A2                 
  1.052   1.081   1.082   1.086   1.104   1.104   1.129   1.134
 43 A1   36 B1   44 A1   37 B1   45 A1   38 B1   39 B1   46 A1                 
  1.142   1.160   1.183   1.184   1.201   1.207   1.247   1.252
 40 B1   47 A1   48 A1   41 B1   49 A1   42 B1   43 B1   50 A1                 
  1.264   1.284   1.310   1.341   1.360   1.375   1.406   1.422
 51 A1   44 B1   45 B1   16 B2   52 A1   46 B1   53 A1   54 A1                 
  1.431   1.451   1.476   1.503   1.516   1.559   1.566   1.604
 47 B1   17 B2   48 B1   13 A2   55 A1   18 B2   14 A2   49 B1                 
  1.634   1.649   1.651   1.683   1.701   1.700   1.703   1.723
 19 B2   50 B1   56 A1   57 A1   51 B1   20 B2   15 A2   21 B2                 
  1.729   1.744   1.750   1.752   1.811   1.897   1.958   2.017
 58 A1   16 A2   22 B2   17 A2   52 B1   53 B1   59 A1   60 A1                 
  2.034   2.045   2.052   2.086   2.095   2.096   2.130   2.142
 18 A2   61 A1   54 B1   23 B2   55 B1   19 A2   62 A1   56 B1                 
  2.155   2.199   2.207   2.220   2.277   2.279   2.300   2.331
 63 A1   57 B1   64 A1   65 A1   66 A1   58 B1   67 A1   20 A2                 
  2.331   2.335   2.373   2.401   2.414   2.420   2.431   2.458
 24 B2   59 B1   68 A1   60 B1   69 A1   70 A1   25 B2   61 B1                 
  2.490   2.494   2.519   2.566   2.568   2.577   2.607   2.608
 21 A2   26 B2   62 B1   27 B2   22 A2   63 B1   23 A2   28 B2                 
  2.625   2.692   2.726   2.730   2.846   2.860   2.877   2.883
 71 A1   24 A2   64 B1   72 A1   73 A1   25 A2   29 B2   65 B1                 
  2.958   2.977   2.989   2.998   3.019   3.024   3.070   3.075
 74 A1   66 B1   75 A1   26 A2   76 A1   67 B1   68 B1   30 B2                 
  3.087   3.159   3.178   3.196   3.210   3.318   3.360   3.467
 77 A1   69 B1   70 B1   78 A1   79 A1   71 B1   80 A1   72 B1                 
  3.569   3.673   3.690   3.862   4.421   4.479   4.488   4.498
 81 A1   73 B1   82 A1   74 B1   83 A1   84 A1   75 B1   85 A1                 
  4.539   4.561   4.585   4.707   4.748   4.826   4.833   5.043
 76 B1   77 B1   86 A1   87 A1   78 B1   88 A1   79 B1   89 A1                 
  5.219   5.279
 80 B1   90 A1                                                                 
 
 Beta MOs, Restricted
 -- Doubly Occupied --           
-20.505 -11.298 -11.267 -11.267 -11.265 -11.264 -11.263 -11.263
  1 A1    2 A1    3 A1    1 B1    4 A1    2 B1    5 A1    3 B1                 
-11.257 -11.256 -11.258 -11.258 -11.249 -11.249  -1.323  -1.187
  4 B1    6 A1    5 B1    7 A1    8 A1    6 B1    9 A1   10 A1                 
 -1.145  -1.080  -1.047  -1.030  -0.967  -0.909  -0.873  -0.813
  7 B1   11 A1   12 A1    8 B1    9 B1   13 A1   14 A1   10 B1                 
 -0.794  -0.766  -0.711  -0.696  -0.662  -0.635  -0.629  -0.614
 11 B1   15 A1   16 A1   12 B1   17 A1   18 A1   13 B1   14 B1                 
 -0.606  -0.596  -0.573  -0.528  -0.540  -0.534  -0.499  -0.495
 19 A1   15 B1   20 A1    1 B2   16 B1   21 A1   22 A1   17 B1                 
 -0.465  -0.454  -0.383  -0.357  -0.342  -0.325
  1 A2    2 B2   18 B1    3 B2    2 A2    4 B2                                 
 -- Singly Occupied (Vacant) --  
 -0.038   0.069
  3 A2    5 B2                                                                 
 -- Virtual --                   
  0.117   0.171   0.210   0.225   0.263   0.239   0.262   0.293
  6 B2    4 A2    5 A2   23 A1    7 B2   19 B1   24 A1   20 B1                 
  0.294   0.314   0.326   0.347   0.401   0.378   0.410   0.415
 25 A1   26 A1   21 B1   22 B1    8 B2   27 A1    6 A2   28 A1                 
  0.425   0.450   0.461   0.471   0.506   0.517   0.543   0.569
 23 B1   29 A1   30 A1   24 B1   31 A1   25 B1   26 B1   32 A1                 
  0.581   0.666   0.674   0.708   0.729   0.732   0.744   0.743
 27 B1   28 B1   33 A1   34 A1    9 B2   35 A1   29 B1   36 A1                 
  0.751   0.768   0.785   0.781   0.787   0.808   0.804   0.814
  7 A2   30 B1   10 B2   31 B1   37 A1   11 B2   32 B1   38 A1                 
  0.815   0.823   0.822   0.836   0.859   0.873   0.868   0.878
 39 A1    8 A2   33 B1   34 B1   35 B1    9 A2   40 A1   12 B2                 
  0.898   0.942   0.969   0.972   0.986   1.009   1.050   1.064
 13 B2   10 A2   14 B2   41 A1   11 A2   42 A1   15 B2   12 A2                 
  1.055   1.083   1.085   1.089   1.106   1.106   1.132   1.137
 43 A1   36 B1   44 A1   37 B1   45 A1   38 B1   39 B1   46 A1                 
  1.146   1.165   1.188   1.188   1.204   1.213   1.251   1.258
 40 B1   47 A1   48 A1   41 B1   49 A1   42 B1   43 B1   50 A1                 
  1.268   1.290   1.316   1.374   1.365   1.379   1.412   1.426
 51 A1   44 B1   45 B1   16 B2   52 A1   46 B1   53 A1   54 A1                 
  1.436   1.471   1.482   1.522   1.522   1.583   1.594   1.610
 47 B1   17 B2   48 B1   13 A2   55 A1   18 B2   14 A2   49 B1                 
  1.658   1.653   1.658   1.689   1.707   1.715   1.713   1.737
 19 B2   50 B1   56 A1   57 A1   51 B1   20 B2   15 A2   21 B2                 
  1.738   1.757   1.758   1.764   1.819   1.903   1.970   2.031
 58 A1   16 A2   22 B2   17 A2   52 B1   53 B1   59 A1   60 A1                 
  2.045   2.051   2.058   2.101   2.099   2.114   2.135   2.146
 18 A2   61 A1   54 B1   23 B2   55 B1   19 A2   62 A1   56 B1                 
  2.162   2.206   2.210   2.224   2.284   2.286   2.311   2.345
 63 A1   57 B1   64 A1   65 A1   66 A1   58 B1   67 A1   20 A2                 
  2.345   2.339   2.381   2.406   2.420   2.431   2.446   2.471
 24 B2   59 B1   68 A1   60 B1   69 A1   70 A1   25 B2   61 B1                 
  2.498   2.509   2.524   2.576   2.582   2.580   2.618   2.618
 21 A2   26 B2   62 B1   27 B2   22 A2   63 B1   23 A2   28 B2                 
  2.630   2.706   2.731   2.739   2.852   2.875   2.887   2.890
 71 A1   24 A2   64 B1   72 A1   73 A1   25 A2   29 B2   65 B1                 
  2.963   2.983   2.991   3.009   3.023   3.027   3.072   3.091
 74 A1   66 B1   75 A1   26 A2   76 A1   67 B1   68 B1   30 B2                 
  3.092   3.166   3.182   3.204   3.214   3.323   3.366   3.471
 77 A1   69 B1   70 B1   78 A1   79 A1   71 B1   80 A1   72 B1                 
  3.573   3.677   3.693   3.864   4.428   4.482   4.491   4.502
 81 A1   73 B1   82 A1   74 B1   83 A1   84 A1   75 B1   85 A1                 
  4.545   4.563   4.588   4.709   4.752   4.831   4.836   5.048
 76 B1   77 B1   86 A1   87 A1   78 B1   88 A1   79 B1   89 A1                 
  5.223   5.284
 80 B1   90 A1                                                                 
 --------------------------------------------------------------
 
          Ground-State Mulliken Net Atomic Charges

     Atom                 Charge (a.u.)
  ----------------------------------------
      1 C                     0.369595
      2 O                    -0.477942
      3 C                    -0.045807
      4 C                    -0.045807
      5 C                    -0.007123
      6 C                    -0.168996
      7 C                    -0.166984
      8 C                    -0.141242
      9 C                    -0.185082
     10 H                     0.211195
     11 H                     0.186612
     12 H                     0.187881
     13 H                     0.183719
     14 C                    -0.007123
     15 C                    -0.168996
     16 C                    -0.141242
     17 C                    -0.166984
     18 C                    -0.185082
     19 H                     0.186612
     20 H                     0.211195
     21 H                     0.187881
     22 H                     0.183719
  ----------------------------------------
  Sum of atomic charges =     0.000000

 -----------------------------------------------------------------
                    Cartesian Multipole Moments
 -----------------------------------------------------------------
    Charge (ESU x 10^10)
                -0.0000
    Dipole Moment (Debye)
         X      -0.0000      Y       0.0000      Z      -4.4227
       Tot       4.4227
    Quadrupole Moments (Debye-Ang)
        XX     -59.9812     XY       0.0000     YY     -83.3455
        XZ      -0.0000     YZ      -0.0000     ZZ     -83.6874
    Octopole Moments (Debye-Ang^2)
       XXX      -0.0000    XXY       0.0000    XYY      -0.0000
       YYY       0.0000    XXZ       1.0113    XYZ       0.0000
       YYZ       6.9088    XZZ      -0.0000    YZZ       0.0000
       ZZZ     -46.2534
    Hexadecapole Moments (Debye-Ang^3)
      XXXX   -2023.4011   XXXY       0.0000   XXYY    -451.6786
      XYYY       0.0000   YYYY     -85.2566   XXXZ       0.0000
      XXYZ      -0.0000   XYYZ      -0.0000   YYYZ       0.0000
      XXZZ    -501.3386   XYZZ      -0.0000   YYZZ    -190.0331
      XZZZ       0.0000   YZZZ      -0.0000   ZZZZ   -1068.3217
 -----------------------------------------------------------------
 Total job time:  1908.52s(wall), 1889.97s(cpu) 
 Thu Jan 25 18:42:54 2024

        *************************************************************
        *                                                           *
        *  Thank you very much for using Q-Chem.  Have a nice day.  *
        *                                                           *
        *************************************************************


