                  Welcome to Q-Chem
     A Quantum Leap Into The Future Of Chemistry


 Q-Chem 6.0 (devel), Q-Chem, Inc., Pleasanton, CA (2022)

 E. Epifanovsky,  A. T. B. Gilbert,  Xintian Feng,  Joonho Lee,  Yuezhi Mao,  
 N. Mardirossian,  P. Pokhilko,  A. White,  M. Wormit,  M. P. Coons,  
 A. L. Dempwolff,  Zhengting Gan,  D. Hait,  P. R. Horn,  L. D. Jacobson,  
 I. Kaliman,  J. Kussmann,  A. W. Lange,  Ka Un Lao,  D. S. Levine,  Jie Liu,  
 S. C. McKenzie,  A. F. Morrison,  K. Nanda,  F. Plasser,  D. R. Rehn,  
 M. L. Vidal,  Zhi-Qiang You,  Ying Zhu,  B. Alam,  B. Albrecht,  
 A. Aldossary,  E. Alguire,  J. H. Andersen,  V. Athavale,  D. Barton,  
 K. Begam,  A. Behn,  N. Bellonzi,  Y. A. Bernard,  E. J. Berquist,  
 H. Burton,  A. Carreras,  K. Carter-Fenk,  Romit Chakraborty,  
 Chandrima Chakravarty,  Junhan Chen,  A. D. Chien,  K. D. Closser,  
 V. Cofer-Shabica,  L. Cunha,  S. Dasgupta,  Jia Deng,  M. de Wergifosse,  
 M. Diedenhofen,  Hainam Do,  S. Ehlert,  Po-Tung Fang,  S. Fatehi,  
 Qingguo Feng,  T. Friedhoff,  B. Ganoe,  J. Gayvert,  Qinghui Ge,  
 G. Gidofalvi,  M. Goldey,  J. Gomes,  C. Gonzalez-Espinoza,  S. Gulania,  
 A. Gunina,  J. A. Gyamfi,  M. W. D. Hanson-Heine,  P. H. P. Harbach,  
 A. W. Hauser,  M. F. Herbst,  M. Hernandez Vera,  M. Hodecker,  
 Z. C. Holden,  S. Houck,  Xunkun Huang,  Kerwin Hui,  B. C. Huynh,  
 K. Ikeda,  M. Ivanov,  Hyunjun Ji,  Zuxin Jin,  Hanjie Jiang,  B. Kaduk,  
 S. Kaehler,  R. Kang,  K. Khistyaev,  Jaehoon Kim,  Yongbin Kim,  
 P. Klunzinger,  Z. Koczor-Benda,  Joong Hoon Koh,  D. Kosenkov,  
 Saikiran Kotaru,  L. Koulias,  T. Kowalczyk,  C. M. Krauter,  K. Kue,  
 A. Kunitsa,  T. Kus,  A. Landau,  K. V. Lawler,  D. Lefrancois,  S. Lehtola,  
 Rain Li,  Shaozhi Li,  Yi-Pei Li,  Jiashu Liang,  M. Liebenthal,  
 Hung-Hsuan Lin,  You-Sheng Lin,  Fenglai Liu,  Kuan-Yu Liu,  
 M. Loipersberger,  A. Luenser,  C. Malbon,  A. Manjanath,  P. Manohar,  
 E. Mansoor,  S. F. Manzer,  Shan-Ping Mao,  A. V. Marenich,  T. Markovich,  
 S. Mason,  F. Matz,  S. A. Maurer,  P. F. McLaughlin,  M. F. S. J. Menger,  
 J.-M. Mewes,  S. A. Mewes,  P. Morgante,  Mohammad Mostafanejad,  
 J. W. Mullinax,  K. J. Oosterbaan,  G. Paran,  V. Parravicini,  
 Alexander C. Paul,  Suranjan K. Paul,  F. Pavosevic,  Zheng Pei,  S. Prager,  
 E. I. Proynov,  E. Ramos,  B. Rana,  A. E. Rask,  A. Rettig,  R. M. Richard,  
 F. Rob,  E. Rossomme,  T. Scheele,  M. Scheurer,  M. Schneider,  
 P. E. Schneider,  N. Sergueev,  S. M. Sharada,  Hengyuan Shen,  
 W. Skomorowski,  D. W. Small,  C. J. Stein,  Yingli Su,  Yu-Chuan Su,  
 E. J. Sundstrom,  Zhen Tao,  J. Thirman,  Hung-Yi Tsai,  T. Tsuchimochi,  
 N. M. Tubman,  C. Utku,  S. P. Veccham,  O. Vydrov,  J. Wenzel,  
 Jonathan Wong,  J. Witte,  A. Yamada,  Chou-Hsun Yang,  Kun Yao,  
 S. Yeganeh,  S. R. Yost,  A. Zech,  F. Zeller,  Igor Ying Zhang,  
 Xing Zhang,  Yu Zhang,  D. Zuev,  A. Aspuru-Guzik,  A. T. Bell,  
 N. A. Besley,  K. B. Bravaya,  B. R. Brooks,  D. Casanova,  Jeng-Da Chai,  
 Hsing-Ta Chen,  S. Coriani,  C. J. Cramer,  A. E. DePrince, III,  
 R. A. DiStasio Jr.,  A. Dreuw,  B. D. Dunietz,  T. R. Furlani,  
 W. A. Goddard III,  S. Grimme,  S. Hammes-Schiffer,  T. Head-Gordon,  
 W. J. Hehre,  Chao-Ping Hsu,  T.-C. Jagau,  Yousung Jung,  A. Klamt,  
 Jing Kong,  D. S. Lambrecht,  Xiangyuan Li,  WanZhen Liang,  N. J. Mayhall,  
 C. W. McCurdy,  J. B. Neaton,  T. Neudecker,  C. Ochsenfeld,  
 J. A. Parkhill,  R. Peverati,  V. A. Rassolov,  Haisheng Ren,  Yihan Shao,  
 L. V. Slipchenko,  R. P. Steele,  J. E. Subotnik,  A. J. W. Thom,  
 A. Tkatchenko,  D. G. Truhlar,  T. Van Voorhis,  Fan Wang,  
 T. A. Wesolowski,  K. B. Whaley,  H. L. Woodcock III,  P. M. Zimmerman,  
 S. Faraji,  P. M. W. Gill,  M. Head-Gordon,  J. M. Herbert,  A. I. Krylov

 Contributors to earlier versions of Q-Chem not listed above: 
 R. D. Adamson,  B. Austin,  R. Baer,  J. Baker,  G. J. O. Beran,  
 K. Brandhorst,  S. T. Brown,  E. F. C. Byrd,  Arup K. Chakraborty,  
 G. K. L. Chan,  Chun-Min Chang,  Yunqing Chen,  C.-L. Cheng,  
 Siu Hung Chien,  D. M. Chipman,  D. L. Crittenden,  H. Dachsel,  
 R. J. Doerksen,  A. D. Dutoi,  R. G. Edgar,  J. Fosso-Tande,  
 L. Fusti-Molnar,  D. Ghosh,  A. Ghysels,  A. Golubeva-Zadorozhnaya,  
 J. Gonthier,  M. S. Gordon,  S. R. Gwaltney,  G. Hawkins,  J. E. Herr,  
 A. Heyden,  S. Hirata,  E. G. Hohenstein,  G. Kedziora,  F. J. Keil,  
 C. Kelley,  Jihan Kim,  R. A. King,  R. Z. Khaliullin,  P. P. Korambath,  
 W. Kurlancheek,  A. Laurent,  A. M. Lee,  M. S. Lee,  S. V. Levchenko,  
 Ching Yeh Lin,  D. Liotard,  E. Livshits,  R. C. Lochan,  I. Lotan,  
 L. A. Martinez-Martinez,  P. E. Maslen,  N. Nair,  D. P. O'Neill,  
 D. Neuhauser,  E. Neuscamman,  C. M. Oana,  R. Olivares-Amaya,  R. Olson,  
 T. M. Perrine,  B. Peters,  P. A. Pieniazek,  A. Prociuk,  Y. M. Rhee,  
 J. Ritchie,  M. A. Rohrdanz,  E. Rosta,  N. J. Russ,  H. F. Schaefer III,  
 M. W. Schmidt,  N. E. Schultz,  S. Sharma,  N. Shenvi,  C. D. Sherrill,  
 A. C. Simmonett,  A. Sodt,  T. Stein,  D. Stuck,  K. S. Thanthiriwatte,  
 V. Vanovschi,  L. Vogt,  Tao Wang,  A. Warshel,  M. A. Watson,  
 C. F. Williams,  Q. Wu,  X. Xu,  Jun Yang,  W. Zhang,  Yan Zhao

   Please cite Q-Chem as follows:
  "Software for the frontiers of quantum chemistry:
   An overview of developments in the Q-Chem 5 package"
   J. Chem. Phys. 155, 084801 (2021)
   https://doi.org/10.1063/5.0055522 (open access)

 Q-Chem 6.0.1 for Intel X86 EM64T Linux

 Parts of Q-Chem use Armadillo 9.900.5 (Nocturnal Misbehaviour).
 http://arma.sourceforge.net/

 Q-Chem begins on Thu Jan 25 18:11:04 2024  

 Host: atlas-141
0

     Scratch files written to ./qchem27924//
 Processing $rem in /scratch/abel/SOFTWARE/qchem/config/preferences:
 Processing $rem in /dipc/acebg/.qchemrc:
 Core orbitals will be frozen

 Checking the input file for inconsistencies... 	...done.

--------------------------------------------------------------
User input:
--------------------------------------------------------------
$comment
 RAS-SF CALCULATION
$end

$molecule
 READ fluorenone_singlet.molecule
$end

$rem
!**CALCULATION TYPE***     
JOBTYPE            sp    
BASIS              6-31G*
BASIS2             STO-3G

!***SCF REFERENCE***
INPUT_BOHR         TRUE
!SKIP_SCFMAN        FALSE
UNRESTRICTED       FALSE
!SCF_GUESS          core
!SCF_GUESS_MIX      FALSE
!SCF_GUESS_ALWAYS   FALSE
MAX_SCF_CYCLES     500
!SCF_CONVERGENCE    10
SCF_ALGORITHM      DIIS_GDM !DIIS,DM,DIIS_DM,GDM,DIIS_GDM,GD

!SYMMETRY           TRUE   !use of symmetry for calculating integrals
!SYM_IGNORE         FALSE  !turn off using symmetry
!SYM_TOL            5      !tolerance for determining point group
!USE_ABELIAN_SUBGROUP      !define to use abelian group

!THRESH             14
!SCF_FINAL_PRINT     1 !0,1,2,3

!****CCSD****
CORRELATION        CCSD
!CC_CONVERGENCE     6
!CC_MAX_ITER        200
CC_PRINT	   1
!CHOLESKY_TOL       3 !Toler. decomposition 2e integrals
CC_REF_PROP  	   1 !one-particle CCSD properties calculation
!CC_REF_PROP_TE	   0 !two-particle CCSD properties calculation
!CC_FNO_THRESH
!CC_BACKEND	   XM !Used to specify the computational back-end of CCMAN2.

!****MEMORY****
MEM_TOTAL          90000 !Default 2000 MB
MEM_STATIC         1000  !Default 64 MB
CC_MEMORY          72000

!**Molecular Properties and Analysis **                                                                                          
!POP_MULLIKEN       TRUE   !Run Mulliken population analysis
!LOWDIN_POPULATION  TRUE   !Run Löwdin population analysis
GUI                0       !Checkpoints generation
!STATE_ANALYSIS     TRUE

!**Wave function analysis**
!PLOTS = 0     ! Note: This can be omitted, default is 0
!NTO_PAIRS = 2 ! Note: This can be omitted, default is 2
!GUI 0
!MOLDEN_FORMAT      TRUE
!PRINT_ORBITALS     15
$end

!$plots
!   grid_points 100 100 100
!   grid_range  (-10,10) (-10,10) (-10,10)
!$end

--------------------------------------------------------------
 ----------------------------------------------------------------
             Standard Nuclear Orientation (Bohr)
    I     Atom           X                Y                Z
 ----------------------------------------------------------------
    1      C      -0.0000000000    -0.0000000000     3.0318066276
    2      O      -0.0000000000    -0.0000000000     5.3638644743
    3      C      -2.1864624130    -0.0000000000     1.3211263669
    4      C       2.1864624130     0.0000000000     1.3211263669
    5      C       1.3222785792     0.0000000000    -1.3152461482
    6      C       4.7555386627     0.0000000000     1.8776505802
    7      C       6.4695983050     0.0000000000    -0.0972082822
    8      C       3.1392439890     0.0000000000    -3.3016694193
    9      C       5.6496513315     0.0000000000    -2.6924387954
   10      H       5.3730975132     0.0000000000     3.8295121100
   11      H       2.5395104465     0.0000000000    -5.2593503586
   12      H       8.4790954600     0.0000000000     0.2945733557
   13      H       7.0667355415     0.0000000000    -4.1688986988
   14      C      -1.3222785792    -0.0000000000    -1.3152461482
   15      C      -4.7555386627    -0.0000000000     1.8776505802
   16      C      -3.1392439890    -0.0000000000    -3.3016694193
   17      C      -6.4695983050    -0.0000000000    -0.0972082822
   18      C      -5.6496513315    -0.0000000000    -2.6924387954
   19      H      -2.5395104465    -0.0000000000    -5.2593503586
   20      H      -5.3730975132    -0.0000000000     3.8295121100
   21      H      -8.4790954600    -0.0000000000     0.2945733557
   22      H      -7.0667355415    -0.0000000000    -4.1688986988
 ----------------------------------------------------------------
 Molecular Point Group                 C2v   NOp =  4
 Largest Abelian Subgroup              C2v   NOp =  4
 Nuclear Repulsion Energy =         775.12034816 hartrees
 There are       47 alpha and       47 beta electrons
 Requested basis set is 6-31G(d)
 There are 72 shells and 226 basis functions
 Total memory of 90000 MB is distributed as follows: 
   MEM_STATIC is set to 1000 MB
   QALLOC/CCMAN JOB total memory use is  89000 MB
 Warning: actual memory use might exceed 90000 MB

 Total QAlloc Memory Limit  90000 MB
 Mega-Array Size       978 MB
 MEM_STATIC part      1000 MB

 A cutoff of  1.0D-14 yielded   2220 shell pairs
 There are     23484 function pairs
 Smallest overlap matrix eigenvalue = 3.50E-04

 Scale SEOQF with 1.000000e-01/1.000000e+00/1.000000e-01

 Standard Electronic Orientation quadrupole field applied
 Nucleus-field energy     =    -0.0000000045 hartrees
 Requested basis set is STO-3G
 There are 36 shells and 78 basis functions
 A cutoff of  1.0D-14 yielded    577 shell pairs
 There are      3052 function pairs
 Smallest overlap matrix eigenvalue = 1.76E-01
 Guess from superposition of atomic densities
 Warning:  Energy on first SCF cycle will be non-variational
 SAD guess density has 94.000000 electrons
 A restricted Hartree-Fock SCF calculation will be
 performed using Pulay DIIS + Geometric Direct Minimization
 SCF converges when RMS gradient is below 1.0E-04
 ---------------------------------------
  Cycle       Energy         DIIS Error
 ---------------------------------------
    1    -565.6871594468      1.35E-01
    2    -564.4898720158      1.33E-02
    3    -564.6328314555      9.95E-03 Done DIIS. Switching to GDM
    4    -564.7110829215      2.15E-02 Normal BFGS step
    5    -564.7145568180      8.74E-03 Normal BFGS step
    6    -564.7156733107      3.25E-03 Normal BFGS step
    7    -564.7157574772      9.73E-04 Normal BFGS step
    8    -564.7157837387      3.25E-04 Normal BFGS step
    9    -564.7157846899      1.16E-04 Normal BFGS step
   10    -564.7157848395      4.43E-05 Convergence criterion met
 ---------------------------------------
 SCF time:  CPU 1.35 s  wall 1.65 s
 SCF   energy in the small basis set = -564.71578484
 Total energy in the small basis set = -564.71578484
 ----------------------------------------------------
  Cycle       Energy    
 ----------------------------------------------------
    1     -70.8806786449     -7.09E+01
 A restricted Hartree-Fock SCF calculation will be
 performed using Pulay DIIS + Geometric Direct Minimization
 SCF converges when RMS gradient is below 1.0E-08
 ---------------------------------------
  Cycle       Energy        RMS Gradient
 ---------------------------------------
    1    -571.6044618596      9.06E-03 Done DIIS. Switching to GDM
    2    -571.7727116833      5.06E-02 Normal BFGS step
    3    -571.7826192725      7.03E-02 Normal BFGS step
    4    -571.8049320154      4.97E-03 Normal BFGS step
    5    -571.8052032534      3.20E-03 Normal BFGS step
    6    -571.8052916560      7.12E-04 Normal BFGS step
    7    -571.8052995950      3.98E-04 Normal BFGS step
    8    -571.8053026672      1.50E-04 Normal BFGS step
    9    -571.8053029545      7.62E-05 Normal BFGS step
   10    -571.8053030081      2.08E-05 Normal BFGS step
   11    -571.8053030148      7.95E-06 Normal BFGS step
   12    -571.8053030155      2.43E-06 Normal BFGS step
   13    -571.8053030156      1.40E-06 Normal BFGS step
   14    -571.8053030156      3.11E-07 Normal BFGS step
   15    -571.8053030156      9.24E-08 Normal BFGS step
   GDM::WARNING energy changes are now smaller than effective accuracy.
   GDM::        calculation will continue, but THRESH should be increased
   GDM::        or SCF_CONVERGENCE decreased.
   GDM::        effective_thresh =   4.699999999999999E-010
   16    -571.8053030156      5.04E-08 Normal BFGS step
   17    -571.8053030156      3.04E-08 Normal BFGS step
   18    -571.8053030156      1.19E-08 Normal BFGS step
   GDM::WARNING energy changes are now smaller than effective accuracy.
   GDM::        calculation will continue, but THRESH should be increased
   GDM::        or SCF_CONVERGENCE decreased.
   GDM::        effective_thresh =   4.699999999999999E-010
   19    -571.8053030156      3.81E-09 Convergence criterion met
 ---------------------------------------
 SCF time:  CPU 65.46 s  wall 67.62 s
 SCF   energy in the final basis set = -571.80530302
 Total energy in the final basis set = -571.80530302


 ------------------------------------------------------------------------------

   CCMAN2: suite of methods based on coupled cluster
           and equation of motion theories.

   Components:
   * libvmm-1.3-trunk
     by Evgeny Epifanovsky, Ilya Kaliman.
   * libtensor-2.5-trunk
     by Evgeny Epifanovsky, Michael Wormit, Dmitry Zuev, Sam Manzer, 
        Ilya Kaliman.
   * libcc-2.5-trunk
     by Evgeny Epifanovsky, Arik Landau, Tomasz Kus, Kirill Khistyaev, 
        Dmitry Zuev, Prashant Manohar, Xintian Feng, Anna Krylov, 
        Matthew Goldey, Alec White, Thomas Jagau, Kaushik Nanda, 
        Anastasia Gunina, Alexander Kunitsa, Joonho Lee.

   CCMAN original authors:
   Anna I. Krylov, C. David Sherrill, Steven R. Gwaltney,
   Edward F. C. Byrd (2000)
   Sergey V. Levchenko, Lyudmila V. Slipchenko, Tao Wang,
   Ana-Maria C. Cristian (2003)
   Piotr A. Pieniazek, C. Melania Oana, Evgeny Epifanovsky (2007)
   Prashant Manohar (2009)

 ------------------------------------------------------------------------------


 Allocating and initializing 72000MB of RAM...
 Calculation will run on 1 core.

 
 Alpha MOs, Restricted
 -- Occupied --                  
-20.561 -11.337 -11.268 -11.267 -11.259 -11.259 -11.254 -11.254
  1 A1    2 A1    3 A1    1 B1    2 B1    4 A1    3 B1    5 A1                 
-11.254 -11.254 -11.249 -11.249 -11.248 -11.248  -1.373  -1.197
  4 B1    6 A1    5 B1    7 A1    6 B1    8 A1    9 A1   10 A1                 
 -1.144  -1.085  -1.051  -1.031  -0.973  -0.923  -0.872  -0.818
  7 B1   11 A1   12 A1    8 B1    9 B1   13 A1   14 A1   10 B1                 
 -0.793  -0.770  -0.714  -0.697  -0.669  -0.642  -0.634  -0.616
 11 B1   15 A1   16 A1   12 B1   17 A1   18 A1   13 B1   14 B1                 
 -0.612  -0.593  -0.583  -0.573  -0.544  -0.535  -0.500  -0.498
 19 A1   15 B1   20 A1    1 B2   16 B1   21 A1   22 A1    2 B2                 
 -0.494  -0.492  -0.417  -0.388  -0.356  -0.351  -0.281
 17 B1    1 A2   18 B1    3 B2    4 B2    2 A2    3 A2                         
 -- Virtual --                   
  0.028   0.096   0.144   0.188   0.229   0.240   0.242   0.266
  5 B2    6 B2    4 A2    5 A2   23 A1    7 B2   19 B1   24 A1                 
  0.295   0.295   0.311   0.326   0.350   0.373   0.374   0.392
 25 A1   20 B1   26 A1   21 B1   22 B1    8 B2   27 A1    6 A2                 
  0.414   0.426   0.449   0.459   0.473   0.492   0.512   0.542
 28 A1   23 B1   29 A1   30 A1   24 B1   31 A1   25 B1   26 B1                 
  0.560   0.580   0.653   0.670   0.710   0.723   0.732   0.742
 32 A1   27 B1   28 B1   33 A1   34 A1    9 B2   35 A1   36 A1                 
  0.744   0.751   0.767   0.772   0.783   0.787   0.801   0.804
 29 B1    7 A2   30 B1   10 B2   31 B1   37 A1   32 B1   11 B2                 
  0.814   0.816   0.823   0.825   0.834   0.858   0.865   0.870
 38 A1   39 A1    8 A2   33 B1   34 B1   35 B1   40 A1    9 A2                 
  0.873   0.893   0.942   0.949   0.958   0.977   0.987   1.040
 12 B2   13 B2   10 A2   41 A1   14 B2   11 A2   42 A1   15 B2                 
  1.053   1.059   1.084   1.087   1.088   1.104   1.113   1.136
 12 A2   43 A1   36 B1   37 B1   44 A1   45 A1   38 B1   46 A1                 
  1.137   1.145   1.165   1.186   1.188   1.205   1.215   1.250
 39 B1   40 B1   47 A1   41 B1   48 A1   49 A1   42 B1   43 B1                 
  1.250   1.268   1.289   1.312   1.328   1.365   1.379   1.412
 50 A1   51 A1   44 B1   45 B1   16 B2   52 A1   46 B1   53 A1                 
  1.422   1.426   1.466   1.475   1.509   1.519   1.573   1.574
 47 B1   54 A1   17 B2   48 B1   55 A1   13 A2   14 A2   18 B2                 
  1.607   1.632   1.653   1.657   1.685   1.707   1.712   1.715
 49 B1   19 B2   50 B1   56 A1   57 A1   51 B1   20 B2   15 A2                 
  1.731   1.738   1.758   1.761   1.764   1.815   1.900   1.968
 58 A1   21 B2   16 A2   22 B2   17 A2   52 B1   53 B1   59 A1                 
  2.022   2.029   2.048   2.048   2.082   2.090   2.102   2.128
 60 A1   18 A2   61 A1   54 B1   23 B2   19 A2   55 B1   62 A1                 
  2.147   2.150   2.205   2.206   2.227   2.274   2.290   2.295
 63 A1   56 B1   64 A1   57 B1   65 A1   66 A1   58 B1   67 A1                 
  2.328   2.342   2.345   2.371   2.407   2.419   2.433   2.442
 20 A2   59 B1   24 B2   68 A1   60 B1   69 A1   70 A1   25 B2                 
  2.472   2.501   2.508   2.527   2.574   2.579   2.579   2.613
 61 B1   21 A2   26 B2   62 B1   27 B2   63 B1   22 A2   28 B2                 
  2.617   2.624   2.698   2.722   2.728   2.853   2.869   2.881
 23 A2   71 A1   24 A2   72 A1   64 B1   73 A1   25 A2   29 B2                 
  2.883   2.964   2.983   2.993   3.009   3.024   3.027   3.063
 65 B1   74 A1   66 B1   75 A1   26 A2   76 A1   67 B1   30 B2                 
  3.075   3.094   3.167   3.187   3.197   3.210   3.325   3.337
 68 B1   77 A1   69 B1   70 B1   78 A1   79 A1   71 B1   80 A1                 
  3.459   3.562   3.677   3.695   3.865   4.405   4.486   4.498
 72 B1   81 A1   73 B1   82 A1   74 B1   83 A1   84 A1   75 B1                 
  4.506   4.547   4.569   4.583   4.713   4.755   4.828   4.842
 85 A1   76 B1   77 B1   86 A1   87 A1   78 B1   88 A1   79 B1                 
  5.037   5.225   5.260
 89 A1   80 B1   90 A1                                                         
 
 Beta MOs, Restricted
 -- Occupied --                  
-20.561 -11.337 -11.268 -11.267 -11.259 -11.259 -11.254 -11.254
  1 A1    2 A1    3 A1    1 B1    2 B1    4 A1    3 B1    5 A1                 
-11.254 -11.254 -11.249 -11.249 -11.248 -11.248  -1.373  -1.197
  4 B1    6 A1    5 B1    7 A1    6 B1    8 A1    9 A1   10 A1                 
 -1.144  -1.085  -1.051  -1.031  -0.973  -0.923  -0.872  -0.818
  7 B1   11 A1   12 A1    8 B1    9 B1   13 A1   14 A1   10 B1                 
 -0.793  -0.770  -0.714  -0.697  -0.669  -0.642  -0.634  -0.616
 11 B1   15 A1   16 A1   12 B1   17 A1   18 A1   13 B1   14 B1                 
 -0.612  -0.593  -0.583  -0.573  -0.544  -0.535  -0.500  -0.498
 19 A1   15 B1   20 A1    1 B2   16 B1   21 A1   22 A1    2 B2                 
 -0.494  -0.492  -0.417  -0.388  -0.356  -0.351  -0.281
 17 B1    1 A2   18 B1    3 B2    4 B2    2 A2    3 A2                         
 -- Virtual --                   
  0.028   0.096   0.144   0.188   0.229   0.240   0.242   0.266
  5 B2    6 B2    4 A2    5 A2   23 A1    7 B2   19 B1   24 A1                 
  0.295   0.295   0.311   0.326   0.350   0.373   0.374   0.392
 25 A1   20 B1   26 A1   21 B1   22 B1    8 B2   27 A1    6 A2                 
  0.414   0.426   0.449   0.459   0.473   0.492   0.512   0.542
 28 A1   23 B1   29 A1   30 A1   24 B1   31 A1   25 B1   26 B1                 
  0.560   0.580   0.653   0.670   0.710   0.723   0.732   0.742
 32 A1   27 B1   28 B1   33 A1   34 A1    9 B2   35 A1   36 A1                 
  0.744   0.751   0.767   0.772   0.783   0.787   0.801   0.804
 29 B1    7 A2   30 B1   10 B2   31 B1   37 A1   32 B1   11 B2                 
  0.814   0.816   0.823   0.825   0.834   0.858   0.865   0.870
 38 A1   39 A1    8 A2   33 B1   34 B1   35 B1   40 A1    9 A2                 
  0.873   0.893   0.942   0.949   0.958   0.977   0.987   1.040
 12 B2   13 B2   10 A2   41 A1   14 B2   11 A2   42 A1   15 B2                 
  1.053   1.059   1.084   1.087   1.088   1.104   1.113   1.136
 12 A2   43 A1   36 B1   37 B1   44 A1   45 A1   38 B1   46 A1                 
  1.137   1.145   1.165   1.186   1.188   1.205   1.215   1.250
 39 B1   40 B1   47 A1   41 B1   48 A1   49 A1   42 B1   43 B1                 
  1.250   1.268   1.289   1.312   1.328   1.365   1.379   1.412
 50 A1   51 A1   44 B1   45 B1   16 B2   52 A1   46 B1   53 A1                 
  1.422   1.426   1.466   1.475   1.509   1.519   1.573   1.574
 47 B1   54 A1   17 B2   48 B1   55 A1   13 A2   14 A2   18 B2                 
  1.607   1.632   1.653   1.657   1.685   1.707   1.712   1.715
 49 B1   19 B2   50 B1   56 A1   57 A1   51 B1   20 B2   15 A2                 
  1.731   1.738   1.758   1.761   1.764   1.815   1.900   1.968
 58 A1   21 B2   16 A2   22 B2   17 A2   52 B1   53 B1   59 A1                 
  2.022   2.029   2.048   2.048   2.082   2.090   2.102   2.128
 60 A1   18 A2   61 A1   54 B1   23 B2   19 A2   55 B1   62 A1                 
  2.147   2.150   2.205   2.206   2.227   2.274   2.290   2.295
 63 A1   56 B1   64 A1   57 B1   65 A1   66 A1   58 B1   67 A1                 
  2.328   2.342   2.345   2.371   2.407   2.419   2.433   2.442
 20 A2   59 B1   24 B2   68 A1   60 B1   69 A1   70 A1   25 B2                 
  2.472   2.501   2.508   2.527   2.574   2.579   2.579   2.613
 61 B1   21 A2   26 B2   62 B1   27 B2   63 B1   22 A2   28 B2                 
  2.617   2.624   2.698   2.722   2.728   2.853   2.869   2.881
 23 A2   71 A1   24 A2   72 A1   64 B1   73 A1   25 A2   29 B2                 
  2.883   2.964   2.983   2.993   3.009   3.024   3.027   3.063
 65 B1   74 A1   66 B1   75 A1   26 A2   76 A1   67 B1   30 B2                 
  3.075   3.094   3.167   3.187   3.197   3.210   3.325   3.337
 68 B1   77 A1   69 B1   70 B1   78 A1   79 A1   71 B1   80 A1                 
  3.459   3.562   3.677   3.695   3.865   4.405   4.486   4.498
 72 B1   81 A1   73 B1   82 A1   74 B1   83 A1   84 A1   75 B1                 
  4.506   4.547   4.569   4.583   4.713   4.755   4.828   4.842
 85 A1   76 B1   77 B1   86 A1   87 A1   78 B1   88 A1   79 B1                 
  5.037   5.225   5.260
 89 A1   80 B1   90 A1                                                         

 Occupation and symmetry of molecular orbitals

 Point group: C2v (4 irreducible representations).

                           A1   A2   B1   B2    All 
 ----------------------------------------------------
 All molecular orbitals:
  - Alpha                  90   26   80   30    226 
  - Beta                   90   26   80   30    226 
 ----------------------------------------------------
 Alpha orbitals:
  - Frozen occupied        8    0    6    0     14  
  - Active occupied        14   3    12   4     33  
  - Active virtual         68   23   62   26    179 
  - Frozen virtual         0    0    0    0     0   
 ----------------------------------------------------
 Beta orbitals:
  - Frozen occupied        8    0    6    0     14  
  - Active occupied        14   3    12   4     33  
  - Active virtual         68   23   62   26    179 
  - Frozen virtual         0    0    0    0     0   
 ----------------------------------------------------

 Import integrals:   CPU 0.00 s  wall 0.00 s

 Import integrals:   CPU 87.09 s  wall 89.47 s

 MP2 amplitudes:   CPU 3.10 s  wall 3.12 s

Running a double precision version
           CCSD T amplitudes will be solved using DIIS.

           Start     Size      MaxIter   EConv     TConv     
           3         7         100       1.00e-06  1.00e-04  
 ------------------------------------------------------------------------------
           Energy (a.u.)   Ediff      Tdiff       Comment
 ------------------------------------------------------------------------------
          -573.62259802                           
     1    -573.59424298   2.84e-02   1.31e+00     
     2    -573.66062338   6.64e-02   1.93e-01     
     3    -573.65742724   3.20e-03   7.54e-02     
     4    -573.66412818   6.70e-03   2.67e-02     Switched to DIIS steps.
     5    -573.66672967   2.60e-03   1.85e-02     
     6    -573.66706325   3.34e-04   6.39e-03     
     7    -573.66702525   3.80e-05   2.16e-03     
     8    -573.66700975   1.55e-05   7.59e-04     
     9    -573.66701228   2.53e-06   2.85e-04     
    10    -573.66701314   8.62e-07   1.17e-04     
    11    -573.66701446   1.32e-06   5.75e-05     
    12    -573.66701464   1.83e-07   2.74e-05     
 ------------------------------------------------------------------------------
          -573.66701464                           CCSD T converged.

End of double precision
 SCF energy                 = -571.80530302
 MP2 energy                 = -573.62259802
 CCSD correlation energy    =   -1.86171162
 CCSD total energy          = -573.66701464

 CCSD  T1^2 = 0.0252  T2^2 = 0.7210  Leading amplitudes:

 Amplitude    Orbitals with energies
 -0.0347       2 (B2) A                  ->    5 (B2) A                   
              -0.4977                          0.0275                     
 -0.0347       2 (B2) B                  ->    5 (B2) B                   
              -0.4977                          0.0275                     
  0.0267       2 (A2) A                  ->    8 (A2) A                   
              -0.3508                          0.8235                     
  0.0267       2 (A2) B                  ->    8 (A2) B                   
              -0.3508                          0.8235                     

 Amplitude    Orbitals with energies
 -0.0473       3 (A2) A      3 (A2) B    ->    5 (B2) A      5 (B2) B     
              -0.2810       -0.2810            0.0275        0.0275       
  0.0473       3 (A2) A      3 (A2) B    ->    5 (B2) B      5 (B2) A     
              -0.2810       -0.2810            0.0275        0.0275       
  0.0473       3 (A2) B      3 (A2) A    ->    5 (B2) A      5 (B2) B     
              -0.2810       -0.2810            0.0275        0.0275       
 -0.0473       3 (A2) B      3 (A2) A    ->    5 (B2) B      5 (B2) A     
              -0.2810       -0.2810            0.0275        0.0275       

 Computing CCSD intermediates for later calculations in double precision
 Finished.

Running a double precision version
           CCSD Lambda amplitudes will be solved using DIIS.
           Start     Size      MaxIter   EConv     LConv     
           3         7         100       1.00e-06  1.00e-04  
 ------------------------------------------------------------------------------
            Enorm      Ldiff       Comment
 ------------------------------------------------------------------------------
     1     9.79e-02   6.73e-02     
     2     2.82e-02   3.45e-03     
     3     1.33e-02   2.61e-03     
     4     4.99e-03   8.57e-04     Switched to DIIS steps.
     5     2.05e-03   6.76e-04     
     6     8.31e-04   3.32e-04     
     7     3.41e-04   9.08e-05     
     8     1.30e-04   1.59e-05     
     9     5.30e-05   1.65e-06     
    10     2.48e-05   1.02e-06     
    11     1.06e-05   5.22e-07     
    12     5.12e-06   1.74e-07     
    13     2.66e-06   1.48e-08     
    14     1.30e-06   3.07e-08     
    15     6.11e-07   1.18e-09     
 ------------------------------------------------------------------------------
                                   CCSD Lambda converged.

 Computing density matrices in double precision...
 Computing density matrices... Done.
 Reference state properties
 Dipole moment (a.u.): 1.289083 (X 0.000000, Y 0.000000, Z -1.289083)
 R-squared (a.u.): 2543.773915 (XX 1715.457042, YY 62.094203, ZZ 766.222669)
 Gauge origin (a.u.): (0.000000, 0.000000, 0.000000)
 Angular momentum (a.u.) against gauge origin: 
 (X 0.000000i, Y 0.000000i, Z 0.000000i)
 Traces of the OPDMs: Tr(AA) 47.000000, Tr(BB) 47.000000
 Density matrix was written to a file for further analysis.

 CCSD calculation:   CPU 700.94 s  wall 724.24 s

 Total ccman2 time:   CPU 798.89 s  wall 826.50 s

 
 --------------------------------------------------------------
             Orbital Energies (a.u.) and Symmetries
 --------------------------------------------------------------
 
 Alpha MOs, Restricted
 -- Occupied --                  
-20.561 -11.337 -11.268 -11.267 -11.259 -11.259 -11.254 -11.254
  1 A1    2 A1    3 A1    1 B1    2 B1    4 A1    3 B1    5 A1                 
-11.254 -11.254 -11.249 -11.249 -11.248 -11.248  -1.373  -1.197
  4 B1    6 A1    5 B1    7 A1    6 B1    8 A1    9 A1   10 A1                 
 -1.144  -1.085  -1.051  -1.031  -0.973  -0.923  -0.872  -0.818
  7 B1   11 A1   12 A1    8 B1    9 B1   13 A1   14 A1   10 B1                 
 -0.793  -0.770  -0.714  -0.697  -0.669  -0.642  -0.634  -0.616
 11 B1   15 A1   16 A1   12 B1   17 A1   18 A1   13 B1   14 B1                 
 -0.612  -0.593  -0.583  -0.573  -0.544  -0.535  -0.500  -0.498
 19 A1   15 B1   20 A1    1 B2   16 B1   21 A1   22 A1    2 B2                 
 -0.494  -0.492  -0.417  -0.388  -0.356  -0.351  -0.281
 17 B1    1 A2   18 B1    3 B2    4 B2    2 A2    3 A2                         
 -- Virtual --                   
  0.028   0.096   0.144   0.188   0.229   0.240   0.242   0.266
  5 B2    6 B2    4 A2    5 A2   23 A1    7 B2   19 B1   24 A1                 
  0.295   0.295   0.311   0.326   0.350   0.373   0.374   0.392
 25 A1   20 B1   26 A1   21 B1   22 B1    8 B2   27 A1    6 A2                 
  0.414   0.426   0.449   0.459   0.473   0.492   0.512   0.542
 28 A1   23 B1   29 A1   30 A1   24 B1   31 A1   25 B1   26 B1                 
  0.560   0.580   0.653   0.670   0.710   0.723   0.732   0.742
 32 A1   27 B1   28 B1   33 A1   34 A1    9 B2   35 A1   36 A1                 
  0.744   0.751   0.767   0.772   0.783   0.787   0.801   0.804
 29 B1    7 A2   30 B1   10 B2   31 B1   37 A1   32 B1   11 B2                 
  0.814   0.816   0.823   0.825   0.834   0.858   0.865   0.870
 38 A1   39 A1    8 A2   33 B1   34 B1   35 B1   40 A1    9 A2                 
  0.873   0.893   0.942   0.949   0.958   0.977   0.987   1.040
 12 B2   13 B2   10 A2   41 A1   14 B2   11 A2   42 A1   15 B2                 
  1.053   1.059   1.084   1.087   1.088   1.104   1.113   1.136
 12 A2   43 A1   36 B1   37 B1   44 A1   45 A1   38 B1   46 A1                 
  1.137   1.145   1.165   1.186   1.188   1.205   1.215   1.250
 39 B1   40 B1   47 A1   41 B1   48 A1   49 A1   42 B1   43 B1                 
  1.250   1.268   1.289   1.312   1.328   1.365   1.379   1.412
 50 A1   51 A1   44 B1   45 B1   16 B2   52 A1   46 B1   53 A1                 
  1.422   1.426   1.466   1.475   1.509   1.519   1.573   1.574
 47 B1   54 A1   17 B2   48 B1   55 A1   13 A2   14 A2   18 B2                 
  1.607   1.632   1.653   1.657   1.685   1.707   1.712   1.715
 49 B1   19 B2   50 B1   56 A1   57 A1   51 B1   20 B2   15 A2                 
  1.731   1.738   1.758   1.761   1.764   1.815   1.900   1.968
 58 A1   21 B2   16 A2   22 B2   17 A2   52 B1   53 B1   59 A1                 
  2.022   2.029   2.048   2.048   2.082   2.090   2.102   2.128
 60 A1   18 A2   61 A1   54 B1   23 B2   19 A2   55 B1   62 A1                 
  2.147   2.150   2.205   2.206   2.227   2.274   2.290   2.295
 63 A1   56 B1   64 A1   57 B1   65 A1   66 A1   58 B1   67 A1                 
  2.328   2.342   2.345   2.371   2.407   2.419   2.433   2.442
 20 A2   59 B1   24 B2   68 A1   60 B1   69 A1   70 A1   25 B2                 
  2.472   2.501   2.508   2.527   2.574   2.579   2.579   2.613
 61 B1   21 A2   26 B2   62 B1   27 B2   63 B1   22 A2   28 B2                 
  2.617   2.624   2.698   2.722   2.728   2.853   2.869   2.881
 23 A2   71 A1   24 A2   72 A1   64 B1   73 A1   25 A2   29 B2                 
  2.883   2.964   2.983   2.993   3.009   3.024   3.027   3.063
 65 B1   74 A1   66 B1   75 A1   26 A2   76 A1   67 B1   30 B2                 
  3.075   3.094   3.167   3.187   3.197   3.210   3.325   3.337
 68 B1   77 A1   69 B1   70 B1   78 A1   79 A1   71 B1   80 A1                 
  3.459   3.562   3.677   3.695   3.865   4.405   4.486   4.498
 72 B1   81 A1   73 B1   82 A1   74 B1   83 A1   84 A1   75 B1                 
  4.506   4.547   4.569   4.583   4.713   4.755   4.828   4.842
 85 A1   76 B1   77 B1   86 A1   87 A1   78 B1   88 A1   79 B1                 
  5.037   5.225   5.260
 89 A1   80 B1   90 A1                                                         
 
 Beta MOs, Restricted
 -- Occupied --                  
-20.561 -11.337 -11.268 -11.267 -11.259 -11.259 -11.254 -11.254
  1 A1    2 A1    3 A1    1 B1    2 B1    4 A1    3 B1    5 A1                 
-11.254 -11.254 -11.249 -11.249 -11.248 -11.248  -1.373  -1.197
  4 B1    6 A1    5 B1    7 A1    6 B1    8 A1    9 A1   10 A1                 
 -1.144  -1.085  -1.051  -1.031  -0.973  -0.923  -0.872  -0.818
  7 B1   11 A1   12 A1    8 B1    9 B1   13 A1   14 A1   10 B1                 
 -0.793  -0.770  -0.714  -0.697  -0.669  -0.642  -0.634  -0.616
 11 B1   15 A1   16 A1   12 B1   17 A1   18 A1   13 B1   14 B1                 
 -0.612  -0.593  -0.583  -0.573  -0.544  -0.535  -0.500  -0.498
 19 A1   15 B1   20 A1    1 B2   16 B1   21 A1   22 A1    2 B2                 
 -0.494  -0.492  -0.417  -0.388  -0.356  -0.351  -0.281
 17 B1    1 A2   18 B1    3 B2    4 B2    2 A2    3 A2                         
 -- Virtual --                   
  0.028   0.096   0.144   0.188   0.229   0.240   0.242   0.266
  5 B2    6 B2    4 A2    5 A2   23 A1    7 B2   19 B1   24 A1                 
  0.295   0.295   0.311   0.326   0.350   0.373   0.374   0.392
 25 A1   20 B1   26 A1   21 B1   22 B1    8 B2   27 A1    6 A2                 
  0.414   0.426   0.449   0.459   0.473   0.492   0.512   0.542
 28 A1   23 B1   29 A1   30 A1   24 B1   31 A1   25 B1   26 B1                 
  0.560   0.580   0.653   0.670   0.710   0.723   0.732   0.742
 32 A1   27 B1   28 B1   33 A1   34 A1    9 B2   35 A1   36 A1                 
  0.744   0.751   0.767   0.772   0.783   0.787   0.801   0.804
 29 B1    7 A2   30 B1   10 B2   31 B1   37 A1   32 B1   11 B2                 
  0.814   0.816   0.823   0.825   0.834   0.858   0.865   0.870
 38 A1   39 A1    8 A2   33 B1   34 B1   35 B1   40 A1    9 A2                 
  0.873   0.893   0.942   0.949   0.958   0.977   0.987   1.040
 12 B2   13 B2   10 A2   41 A1   14 B2   11 A2   42 A1   15 B2                 
  1.053   1.059   1.084   1.087   1.088   1.104   1.113   1.136
 12 A2   43 A1   36 B1   37 B1   44 A1   45 A1   38 B1   46 A1                 
  1.137   1.145   1.165   1.186   1.188   1.205   1.215   1.250
 39 B1   40 B1   47 A1   41 B1   48 A1   49 A1   42 B1   43 B1                 
  1.250   1.268   1.289   1.312   1.328   1.365   1.379   1.412
 50 A1   51 A1   44 B1   45 B1   16 B2   52 A1   46 B1   53 A1                 
  1.422   1.426   1.466   1.475   1.509   1.519   1.573   1.574
 47 B1   54 A1   17 B2   48 B1   55 A1   13 A2   14 A2   18 B2                 
  1.607   1.632   1.653   1.657   1.685   1.707   1.712   1.715
 49 B1   19 B2   50 B1   56 A1   57 A1   51 B1   20 B2   15 A2                 
  1.731   1.738   1.758   1.761   1.764   1.815   1.900   1.968
 58 A1   21 B2   16 A2   22 B2   17 A2   52 B1   53 B1   59 A1                 
  2.022   2.029   2.048   2.048   2.082   2.090   2.102   2.128
 60 A1   18 A2   61 A1   54 B1   23 B2   19 A2   55 B1   62 A1                 
  2.147   2.150   2.205   2.206   2.227   2.274   2.290   2.295
 63 A1   56 B1   64 A1   57 B1   65 A1   66 A1   58 B1   67 A1                 
  2.328   2.342   2.345   2.371   2.407   2.419   2.433   2.442
 20 A2   59 B1   24 B2   68 A1   60 B1   69 A1   70 A1   25 B2                 
  2.472   2.501   2.508   2.527   2.574   2.579   2.579   2.613
 61 B1   21 A2   26 B2   62 B1   27 B2   63 B1   22 A2   28 B2                 
  2.617   2.624   2.698   2.722   2.728   2.853   2.869   2.881
 23 A2   71 A1   24 A2   72 A1   64 B1   73 A1   25 A2   29 B2                 
  2.883   2.964   2.983   2.993   3.009   3.024   3.027   3.063
 65 B1   74 A1   66 B1   75 A1   26 A2   76 A1   67 B1   30 B2                 
  3.075   3.094   3.167   3.187   3.197   3.210   3.325   3.337
 68 B1   77 A1   69 B1   70 B1   78 A1   79 A1   71 B1   80 A1                 
  3.459   3.562   3.677   3.695   3.865   4.405   4.486   4.498
 72 B1   81 A1   73 B1   82 A1   74 B1   83 A1   84 A1   75 B1                 
  4.506   4.547   4.569   4.583   4.713   4.755   4.828   4.842
 85 A1   76 B1   77 B1   86 A1   87 A1   78 B1   88 A1   79 B1                 
  5.037   5.225   5.260
 89 A1   80 B1   90 A1                                                         
 --------------------------------------------------------------
 
          Ground-State Mulliken Net Atomic Charges

     Atom                 Charge (a.u.)
  ----------------------------------------
      1 C                     0.420106
      2 O                    -0.424490
      3 C                    -0.074789
      4 C                    -0.074789
      5 C                     0.006392
      6 C                    -0.165313
      7 C                    -0.181163
      8 C                    -0.159551
      9 C                    -0.172095
     10 H                     0.204682
     11 H                     0.183760
     12 H                     0.178492
     13 H                     0.181777
     14 C                     0.006392
     15 C                    -0.165313
     16 C                    -0.159551
     17 C                    -0.181163
     18 C                    -0.172095
     19 H                     0.183760
     20 H                     0.204682
     21 H                     0.178492
     22 H                     0.181777
  ----------------------------------------
  Sum of atomic charges =     0.000000

 -----------------------------------------------------------------
                    Cartesian Multipole Moments
 -----------------------------------------------------------------
    Charge (ESU x 10^10)
                 0.0000
    Dipole Moment (Debye)
         X      -0.0000      Y       0.0000      Z      -3.2765
       Tot       3.2765
    Quadrupole Moments (Debye-Ang)
        XX     -64.3884     XY      -0.0000     YY     -83.5188
        XZ       0.0000     YZ       0.0000     ZZ     -79.8845
    Octopole Moments (Debye-Ang^2)
       XXX      -0.0000    XXY      -0.0000    XYY      -0.0000
       YYY       0.0000    XXZ       0.9384    XYZ       0.0000
       YYZ       7.7293    XZZ      -0.0000    YZZ      -0.0000
       ZZZ     -37.3834
    Hexadecapole Moments (Debye-Ang^3)
      XXXX   -2092.8493   XXXY      -0.0000   XXYY    -455.9974
      XYYY      -0.0000   YYYY     -85.6393   XXXZ       0.0000
      XXYZ       0.0000   XYYZ       0.0000   YYYZ      -0.0000
      XXZZ    -497.6170   XYZZ      -0.0000   YYZZ    -187.2538
      XZZZ       0.0000   YZZZ      -0.0000   ZZZZ   -1037.3585
 -----------------------------------------------------------------
 Total job time:  922.81s(wall), 890.87s(cpu) 
 Thu Jan 25 18:26:27 2024

        *************************************************************
        *                                                           *
        *  Thank you very much for using Q-Chem.  Have a nice day.  *
        *                                                           *
        *************************************************************


