                  Welcome to Q-Chem
     A Quantum Leap Into The Future Of Chemistry


 Q-Chem 6.0 (devel), Q-Chem, Inc., Pleasanton, CA (2022)

 E. Epifanovsky,  A. T. B. Gilbert,  Xintian Feng,  Joonho Lee,  Yuezhi Mao,  
 N. Mardirossian,  P. Pokhilko,  A. White,  M. Wormit,  M. P. Coons,  
 A. L. Dempwolff,  Zhengting Gan,  D. Hait,  P. R. Horn,  L. D. Jacobson,  
 I. Kaliman,  J. Kussmann,  A. W. Lange,  Ka Un Lao,  D. S. Levine,  Jie Liu,  
 S. C. McKenzie,  A. F. Morrison,  K. Nanda,  F. Plasser,  D. R. Rehn,  
 M. L. Vidal,  Zhi-Qiang You,  Ying Zhu,  B. Alam,  B. Albrecht,  
 A. Aldossary,  E. Alguire,  J. H. Andersen,  V. Athavale,  D. Barton,  
 K. Begam,  A. Behn,  N. Bellonzi,  Y. A. Bernard,  E. J. Berquist,  
 H. Burton,  A. Carreras,  K. Carter-Fenk,  Romit Chakraborty,  
 Chandrima Chakravarty,  Junhan Chen,  A. D. Chien,  K. D. Closser,  
 V. Cofer-Shabica,  L. Cunha,  S. Dasgupta,  Jia Deng,  M. de Wergifosse,  
 M. Diedenhofen,  Hainam Do,  S. Ehlert,  Po-Tung Fang,  S. Fatehi,  
 Qingguo Feng,  T. Friedhoff,  B. Ganoe,  J. Gayvert,  Qinghui Ge,  
 G. Gidofalvi,  M. Goldey,  J. Gomes,  C. Gonzalez-Espinoza,  S. Gulania,  
 A. Gunina,  J. A. Gyamfi,  M. W. D. Hanson-Heine,  P. H. P. Harbach,  
 A. W. Hauser,  M. F. Herbst,  M. Hernandez Vera,  M. Hodecker,  
 Z. C. Holden,  S. Houck,  Xunkun Huang,  Kerwin Hui,  B. C. Huynh,  
 K. Ikeda,  M. Ivanov,  Hyunjun Ji,  Zuxin Jin,  Hanjie Jiang,  B. Kaduk,  
 S. Kaehler,  R. Kang,  K. Khistyaev,  Jaehoon Kim,  Yongbin Kim,  
 P. Klunzinger,  Z. Koczor-Benda,  Joong Hoon Koh,  D. Kosenkov,  
 Saikiran Kotaru,  L. Koulias,  T. Kowalczyk,  C. M. Krauter,  K. Kue,  
 A. Kunitsa,  T. Kus,  A. Landau,  K. V. Lawler,  D. Lefrancois,  S. Lehtola,  
 Rain Li,  Shaozhi Li,  Yi-Pei Li,  Jiashu Liang,  M. Liebenthal,  
 Hung-Hsuan Lin,  You-Sheng Lin,  Fenglai Liu,  Kuan-Yu Liu,  
 M. Loipersberger,  A. Luenser,  C. Malbon,  A. Manjanath,  P. Manohar,  
 E. Mansoor,  S. F. Manzer,  Shan-Ping Mao,  A. V. Marenich,  T. Markovich,  
 S. Mason,  F. Matz,  S. A. Maurer,  P. F. McLaughlin,  M. F. S. J. Menger,  
 J.-M. Mewes,  S. A. Mewes,  P. Morgante,  Mohammad Mostafanejad,  
 J. W. Mullinax,  K. J. Oosterbaan,  G. Paran,  V. Parravicini,  
 Alexander C. Paul,  Suranjan K. Paul,  F. Pavosevic,  Zheng Pei,  S. Prager,  
 E. I. Proynov,  E. Ramos,  B. Rana,  A. E. Rask,  A. Rettig,  R. M. Richard,  
 F. Rob,  E. Rossomme,  T. Scheele,  M. Scheurer,  M. Schneider,  
 P. E. Schneider,  N. Sergueev,  S. M. Sharada,  Hengyuan Shen,  
 W. Skomorowski,  D. W. Small,  C. J. Stein,  Yingli Su,  Yu-Chuan Su,  
 E. J. Sundstrom,  Zhen Tao,  J. Thirman,  Hung-Yi Tsai,  T. Tsuchimochi,  
 N. M. Tubman,  C. Utku,  S. P. Veccham,  O. Vydrov,  J. Wenzel,  
 Jonathan Wong,  J. Witte,  A. Yamada,  Chou-Hsun Yang,  Kun Yao,  
 S. Yeganeh,  S. R. Yost,  A. Zech,  F. Zeller,  Igor Ying Zhang,  
 Xing Zhang,  Yu Zhang,  D. Zuev,  A. Aspuru-Guzik,  A. T. Bell,  
 N. A. Besley,  K. B. Bravaya,  B. R. Brooks,  D. Casanova,  Jeng-Da Chai,  
 Hsing-Ta Chen,  S. Coriani,  C. J. Cramer,  A. E. DePrince, III,  
 R. A. DiStasio Jr.,  A. Dreuw,  B. D. Dunietz,  T. R. Furlani,  
 W. A. Goddard III,  S. Grimme,  S. Hammes-Schiffer,  T. Head-Gordon,  
 W. J. Hehre,  Chao-Ping Hsu,  T.-C. Jagau,  Yousung Jung,  A. Klamt,  
 Jing Kong,  D. S. Lambrecht,  Xiangyuan Li,  WanZhen Liang,  N. J. Mayhall,  
 C. W. McCurdy,  J. B. Neaton,  T. Neudecker,  C. Ochsenfeld,  
 J. A. Parkhill,  R. Peverati,  V. A. Rassolov,  Haisheng Ren,  Yihan Shao,  
 L. V. Slipchenko,  R. P. Steele,  J. E. Subotnik,  A. J. W. Thom,  
 A. Tkatchenko,  D. G. Truhlar,  T. Van Voorhis,  Fan Wang,  
 T. A. Wesolowski,  K. B. Whaley,  H. L. Woodcock III,  P. M. Zimmerman,  
 S. Faraji,  P. M. W. Gill,  M. Head-Gordon,  J. M. Herbert,  A. I. Krylov

 Contributors to earlier versions of Q-Chem not listed above: 
 R. D. Adamson,  B. Austin,  R. Baer,  J. Baker,  G. J. O. Beran,  
 K. Brandhorst,  S. T. Brown,  E. F. C. Byrd,  Arup K. Chakraborty,  
 G. K. L. Chan,  Chun-Min Chang,  Yunqing Chen,  C.-L. Cheng,  
 Siu Hung Chien,  D. M. Chipman,  D. L. Crittenden,  H. Dachsel,  
 R. J. Doerksen,  A. D. Dutoi,  R. G. Edgar,  J. Fosso-Tande,  
 L. Fusti-Molnar,  D. Ghosh,  A. Ghysels,  A. Golubeva-Zadorozhnaya,  
 J. Gonthier,  M. S. Gordon,  S. R. Gwaltney,  G. Hawkins,  J. E. Herr,  
 A. Heyden,  S. Hirata,  E. G. Hohenstein,  G. Kedziora,  F. J. Keil,  
 C. Kelley,  Jihan Kim,  R. A. King,  R. Z. Khaliullin,  P. P. Korambath,  
 W. Kurlancheek,  A. Laurent,  A. M. Lee,  M. S. Lee,  S. V. Levchenko,  
 Ching Yeh Lin,  D. Liotard,  E. Livshits,  R. C. Lochan,  I. Lotan,  
 L. A. Martinez-Martinez,  P. E. Maslen,  N. Nair,  D. P. O'Neill,  
 D. Neuhauser,  E. Neuscamman,  C. M. Oana,  R. Olivares-Amaya,  R. Olson,  
 T. M. Perrine,  B. Peters,  P. A. Pieniazek,  A. Prociuk,  Y. M. Rhee,  
 J. Ritchie,  M. A. Rohrdanz,  E. Rosta,  N. J. Russ,  H. F. Schaefer III,  
 M. W. Schmidt,  N. E. Schultz,  S. Sharma,  N. Shenvi,  C. D. Sherrill,  
 A. C. Simmonett,  A. Sodt,  T. Stein,  D. Stuck,  K. S. Thanthiriwatte,  
 V. Vanovschi,  L. Vogt,  Tao Wang,  A. Warshel,  M. A. Watson,  
 C. F. Williams,  Q. Wu,  X. Xu,  Jun Yang,  W. Zhang,  Yan Zhao

   Please cite Q-Chem as follows:
  "Software for the frontiers of quantum chemistry:
   An overview of developments in the Q-Chem 5 package"
   J. Chem. Phys. 155, 084801 (2021)
   https://doi.org/10.1063/5.0055522 (open access)

 Q-Chem 6.0.1 for Intel X86 EM64T Linux

 Parts of Q-Chem use Armadillo 9.900.5 (Nocturnal Misbehaviour).
 http://arma.sourceforge.net/

 Q-Chem begins on Tue Jan 23 16:28:40 2024  

 Host: atlas-139
0

     Scratch files written to ./qchem155569//
 Processing $rem in /scratch/abel/SOFTWARE/qchem/config/preferences:
 Processing $rem in /dipc/acebg/.qchemrc:
 Core orbitals will be frozen

 Checking the input file for inconsistencies... 	...done.

--------------------------------------------------------------
User input:
--------------------------------------------------------------
$comment
 RAS-SF CALCULATION
$end

$molecule
 READ naphthalene_singlet.molecule
$end

$rem
!**CALCULATION TYPE***     
JOBTYPE            sp    
BASIS              6-31G*
BASIS2             STO-3G

!***SCF REFERENCE***
INPUT_BOHR          TRUE
!SKIP_SCFMAN        FALSE
UNRESTRICTED       FALSE
!SCF_GUESS          core
!SCF_GUESS_MIX      FALSE
!SCF_GUESS_ALWAYS   FALSE
MAX_SCF_CYCLES     500
!SCF_CONVERGENCE    10
SCF_ALGORITHM      DIIS_GDM !DIIS,DM,DIIS_DM,GDM,DIIS_GDM,GD

!SYMMETRY           TRUE   !use of symmetry for calculating integrals
!SYM_IGNORE         FALSE  !turn off using symmetry
!SYM_TOL            5      !tolerance for determining point group
!USE_ABELIAN_SUBGROUP      !define to use abelian group

!THRESH             14
SCF_FINAL_PRINT     1 !0,1,2,3

!****CCSD****
CORRELATION        CCSD
!CC_CONVERGENCE     6
!CC_MAX_ITER        200
CC_PRINT	   1
!CHOLESKY_TOL       3 !Toler. decomposition 2e integrals
!CC_REF_PROP  	   1 !one-particle CCSD properties calculation
!CC_REF_PROP_TE	   0 !two-particle CCSD properties calculation
!CC_FNO_THRESH
!CC_BACKEND	   XM !Used to specify the computational back-end of CCMAN2.

!****MEMORY****
MEM_TOTAL          70000 !Default 2000 MB
MEM_STATIC         10000  !Default 64 MB
CC_MEMORY          10000

!**Molecular Properties and Analysis **                                                                                          
!POP_MULLIKEN       TRUE   !Run Mulliken population analysis
!LOWDIN_POPULATION  TRUE   !Run Löwdin population analysis
GUI                0       !Checkpoints generation
!STATE_ANALYSIS     TRUE

!**Wave function analysis**
!PLOTS = 0     ! Note: This can be omitted, default is 0
!NTO_PAIRS = 2 ! Note: This can be omitted, default is 2
!GUI 0
!MOLDEN_FORMAT      TRUE
!PRINT_ORBITALS     15
$end

!$plots
!   grid_points 100 100 100
!   grid_range  (-10,10) (-10,10) (-10,10)
!$end

--------------------------------------------------------------
 ----------------------------------------------------------------
             Standard Nuclear Orientation (Bohr)
    I     Atom           X                Y                Z
 ----------------------------------------------------------------
    1      C       0.0000000000    -1.3623625091    -0.0000000000
    2      C      -0.0000000000     1.3623625091     0.0000000000
    3      C      -2.3376206850    -2.6436978817    -0.0000000000
    4      C      -4.6989437780    -1.2863193617     0.0000000000
    5      C      -4.6989437780     1.2863193617     0.0000000000
    6      C      -2.3376206850     2.6436978817     0.0000000000
    7      C       2.3376206850     2.6436978817     0.0000000000
    8      C       2.3376206850    -2.6436978817    -0.0000000000
    9      C       4.6989437780    -1.2863193617    -0.0000000000
   10      C       4.6989437780     1.2863193617    -0.0000000000
   11      H       2.3527347410    -4.6914688881    -0.0000000000
   12      H       6.4552948094    -2.3370951729    -0.0000000000
   13      H       6.4552948094     2.3370951729    -0.0000000000
   14      H       2.3527347410     4.6914688881     0.0000000000
   15      H      -2.3527347410    -4.6914688881    -0.0000000000
   16      H      -6.4552948094    -2.3370951729     0.0000000000
   17      H      -6.4552948094     2.3370951729     0.0000000000
   18      H      -2.3527347410     4.6914688881     0.0000000000
 ----------------------------------------------------------------
 Molecular Point Group                 D2h   NOp =  8
 Largest Abelian Subgroup              D2h   NOp =  8
 Nuclear Repulsion Energy =         454.42574361 hartrees
 There are       34 alpha and       34 beta electrons
 Requested basis set is 6-31G(d)
 There are 56 shells and 166 basis functions
WARNING: MEM_STATIC is adjusted to be 2000 MB!
 Total memory of 70000 MB is distributed as follows: 
   MEM_STATIC is set to 2000 MB
   QALLOC/CCMAN JOB total memory use is  68000 MB
 Warning: actual memory use might exceed 70000 MB

 Total QAlloc Memory Limit  70000 MB
 Mega-Array Size      1956 MB
 MEM_STATIC part      2000 MB

 A cutoff of  1.0D-14 yielded   1468 shell pairs
 There are     13635 function pairs
 Smallest overlap matrix eigenvalue = 3.23E-04

 Scale SEOQF with 1.000000e-01/1.000000e-01/1.000000e+00

 Standard Electronic Orientation quadrupole field applied
 Nucleus-field energy     =     0.0000000153 hartrees
 Requested basis set is STO-3G
 There are 28 shells and 58 basis functions
 A cutoff of  1.0D-14 yielded    372 shell pairs
 There are      1737 function pairs
 Smallest overlap matrix eigenvalue = 1.76E-01
 Guess from superposition of atomic densities
 Warning:  Energy on first SCF cycle will be non-variational
 SAD guess density has 68.000000 electrons
 A restricted Hartree-Fock SCF calculation will be
 performed using Pulay DIIS + Geometric Direct Minimization
 SCF converges when RMS gradient is below 1.0E-04
 ---------------------------------------
  Cycle       Energy         DIIS Error
 ---------------------------------------
    1    -378.9587388932      1.51E-01
    2    -378.5924422434      9.09E-03 Done DIIS. Switching to GDM
    3    -378.6501964123      1.82E-02 Normal BFGS step
    4    -378.6539510287      6.43E-03 Normal BFGS step
    5    -378.6542414683      3.21E-03 Normal BFGS step
    6    -378.6542702426      7.23E-04 Normal BFGS step
    7    -378.6542718129      3.04E-04 Normal BFGS step
    8    -378.6542721780      6.57E-05 Convergence criterion met
 ---------------------------------------
 One-Electron    Energy = -1415.8683212470
 Total Coulomb   Energy =   637.4877070026
 Alpha Exchange  Energy =   -27.3497007777
 Beta  Exchange  Energy =   -27.3497007777
 DFT   Exchange  Energy =     0.0000000000
 DFT Correlation Energy =     0.0000000000
 Nuclear Repu.   Energy =   454.4257436217
 Nuclear Attr.   Energy = -1791.1087348322
 Kinetic         Energy =   375.2404135852
 SCF time:  CPU 0.33 s  wall 0.68 s
 SCF   energy in the small basis set = -378.65427218
 Total energy in the small basis set = -378.65427218
 ----------------------------------------------------
  Cycle       Energy    
 ----------------------------------------------------
    1     -49.2734165961     -4.93E+01
 A restricted Hartree-Fock SCF calculation will be
 performed using Pulay DIIS + Geometric Direct Minimization
 SCF converges when RMS gradient is below 1.0E-08
 ---------------------------------------
  Cycle       Energy         DIIS Error
 ---------------------------------------
    1    -383.2183208695      1.00E-02
    2    -383.3248770128      1.06E-03 Done DIIS. Switching to GDM
    3    -383.3288590059      3.91E-03 Normal BFGS step
    4    -383.3290916074      1.88E-03 Normal BFGS step
    5    -383.3291361165      6.44E-04 Normal BFGS step
    6    -383.3291385458      3.39E-04 Normal BFGS step
    7    -383.3291391941      6.71E-05 Normal BFGS step
    8    -383.3291392210      3.52E-05 Normal BFGS step
    9    -383.3291392277      2.35E-06 Normal BFGS step
   10    -383.3291392278      8.21E-07 Normal BFGS step
   11    -383.3291392278      2.97E-07 Normal BFGS step
   12    -383.3291392278      7.78E-08 Normal BFGS step
   13    -383.3291392278      1.76E-08 Normal BFGS step
   14    -383.3291392278      3.20E-09 Convergence criterion met
 ---------------------------------------
 One-Electron    Energy = -1418.3795141656
 Total Coulomb   Energy =   635.2803176680
 Alpha Exchange  Energy =   -27.3278431760
 Beta  Exchange  Energy =   -27.3278431760
 DFT   Exchange  Energy =     0.0000000000
 DFT Correlation Energy =     0.0000000000
 Nuclear Repu.   Energy =   454.4257436217
 Nuclear Attr.   Energy = -1800.7365239306
 Kinetic         Energy =   382.3570097650
 SCF time:  CPU 24.98 s  wall 25.75 s
 SCF   energy in the final basis set = -383.32913923
 Total energy in the final basis set = -383.32913923


 ------------------------------------------------------------------------------

   CCMAN2: suite of methods based on coupled cluster
           and equation of motion theories.

   Components:
   * libvmm-1.3-trunk
     by Evgeny Epifanovsky, Ilya Kaliman.
   * libtensor-2.5-trunk
     by Evgeny Epifanovsky, Michael Wormit, Dmitry Zuev, Sam Manzer, 
        Ilya Kaliman.
   * libcc-2.5-trunk
     by Evgeny Epifanovsky, Arik Landau, Tomasz Kus, Kirill Khistyaev, 
        Dmitry Zuev, Prashant Manohar, Xintian Feng, Anna Krylov, 
        Matthew Goldey, Alec White, Thomas Jagau, Kaushik Nanda, 
        Anastasia Gunina, Alexander Kunitsa, Joonho Lee.

   CCMAN original authors:
   Anna I. Krylov, C. David Sherrill, Steven R. Gwaltney,
   Edward F. C. Byrd (2000)
   Sergey V. Levchenko, Lyudmila V. Slipchenko, Tao Wang,
   Ana-Maria C. Cristian (2003)
   Piotr A. Pieniazek, C. Melania Oana, Evgeny Epifanovsky (2007)
   Prashant Manohar (2009)

 ------------------------------------------------------------------------------


 Allocating and initializing 10000MB of RAM...
 Calculation will run on 1 core.

 
 Alpha MOs, Restricted
 -- Occupied --                  
-11.244 -11.243 -11.242 -11.242 -11.242 -11.242 -11.239 -11.239
  1 Ag    1 B2u   1 B1g   1 B3u   2 Ag    2 B2u   2 B3u   3 Ag                 
-11.238 -11.238  -1.165  -1.098  -1.038  -1.014  -0.955  -0.863
  2 B1g   3 B2u   4 Ag    3 B3u   4 B2u   5 Ag    3 B1g   4 B3u                
 -0.820  -0.806  -0.706  -0.691  -0.667  -0.622  -0.611  -0.577
  5 B2u   6 Ag    4 B1g   5 B3u   7 Ag    6 B2u   8 Ag    6 B3u                
 -0.573  -0.545  -0.534  -0.522  -0.478  -0.477  -0.438  -0.374
  5 B1g   7 B2u   7 B3u   1 B1u   9 Ag    6 B1g   1 B2g   1 B3g                
 -0.323  -0.260
  2 B1u   1 Au                                                                 
 -- Virtual --                   
  0.074   0.135   0.188   0.239   0.258   0.268   0.280   0.306
  2 B2g   2 B3g   3 B1u  10 Ag    8 B3u   8 B2u   2 Au   11 Ag                 
  0.318   0.319   0.336   0.356   0.411   0.424   0.428   0.482
  7 B1g   9 B2u   9 B3u   8 B1g   3 B3g  10 B2u  12 Ag   11 B2u                
  0.483   0.492   0.504   0.550   0.685   0.704   0.713   0.723
 10 B3u  13 Ag    9 B1g  11 B3u  14 Ag   12 B3u  10 B1g  12 B2u                
  0.742   0.744   0.744   0.779   0.799   0.809   0.817   0.822
 13 B2u   4 B1u  15 Ag    3 B2g  13 B3u   4 B3g  16 Ag   14 B3u                
  0.823   0.840   0.842   0.849   0.863   0.863   0.871   0.924
 11 B1g   5 B1u  14 B2u  17 Ag   15 B2u  12 B1g   3 Au    5 B3g                
  0.926   0.941   1.000   1.083   1.086   1.097   1.113   1.119
  4 B2g   6 B1u   4 Au    6 B3g  18 Ag   16 B2u  13 B1g  17 B2u                
  1.120   1.135   1.155   1.160   1.181   1.193   1.194   1.238
 15 B3u  14 B1g  19 Ag   16 B3u  20 Ag   18 B2u  15 B1g  16 B1g                
  1.242   1.257   1.288   1.293   1.343   1.397   1.436   1.457
 17 B3u  18 B3u  21 Ag   19 B2u  20 B2u  17 B1g  19 B3u  18 B1g                
  1.494   1.516   1.525   1.555   1.661   1.677   1.697   1.726
  7 B1u   5 B2g  21 B2u  22 Ag    5 Au    6 B2g  23 Ag   20 B3u                
  1.730   1.746   1.763   1.772   1.773   1.781   1.792   1.972
  8 B1u  19 B1g   7 B2g   7 B3g   9 B1u  22 B2u   6 Au   24 Ag                 
  2.098   2.098   2.165   2.168   2.174   2.176   2.217   2.263
 25 Ag   21 B3u  23 B2u   8 B3g  22 B3u  20 B1g  26 Ag   23 B3u                
  2.272   2.273   2.281   2.356   2.372   2.407   2.440   2.457
 24 B2u  21 B1g  10 B1u  27 Ag   25 B2u  22 B1g  28 Ag    8 B2g                
  2.465   2.495   2.547   2.571   2.605   2.642   2.655   2.664
 24 B3u   9 B3g   7 Au   26 B2u  11 B1u  10 B3g  23 B1g   9 B2g                
  2.689   2.730   2.908   2.914   2.951   2.958   2.986   2.987
  8 Au   25 B3u  29 Ag   26 B3u   9 Au   27 B2u  24 B1g  11 B3g                
  3.058   3.104   3.118   3.167   3.196   3.222   3.296   3.437
 30 Ag   25 B1g  28 B2u  27 B3u  29 B2u  31 Ag   26 B1g  30 B2u                
  3.713   3.824   4.493   4.509   4.528   4.549   4.564   4.696
 31 B2u  27 B1g  32 Ag   28 B3u  32 B2u  28 B1g  33 Ag   29 B3u                
  4.770   4.821   4.934   5.221
 33 B2u  34 Ag   29 B1g  34 B2u                                                
 
 Beta MOs, Restricted
 -- Occupied --                  
-11.244 -11.243 -11.242 -11.242 -11.242 -11.242 -11.239 -11.239
  1 Ag    1 B2u   1 B1g   1 B3u   2 Ag    2 B2u   2 B3u   3 Ag                 
-11.238 -11.238  -1.165  -1.098  -1.038  -1.014  -0.955  -0.863
  2 B1g   3 B2u   4 Ag    3 B3u   4 B2u   5 Ag    3 B1g   4 B3u                
 -0.820  -0.806  -0.706  -0.691  -0.667  -0.622  -0.611  -0.577
  5 B2u   6 Ag    4 B1g   5 B3u   7 Ag    6 B2u   8 Ag    6 B3u                
 -0.573  -0.545  -0.534  -0.522  -0.478  -0.477  -0.438  -0.374
  5 B1g   7 B2u   7 B3u   1 B1u   9 Ag    6 B1g   1 B2g   1 B3g                
 -0.323  -0.260
  2 B1u   1 Au                                                                 
 -- Virtual --                   
  0.074   0.135   0.188   0.239   0.258   0.268   0.280   0.306
  2 B2g   2 B3g   3 B1u  10 Ag    8 B3u   8 B2u   2 Au   11 Ag                 
  0.318   0.319   0.336   0.356   0.411   0.424   0.428   0.482
  7 B1g   9 B2u   9 B3u   8 B1g   3 B3g  10 B2u  12 Ag   11 B2u                
  0.483   0.492   0.504   0.550   0.685   0.704   0.713   0.723
 10 B3u  13 Ag    9 B1g  11 B3u  14 Ag   12 B3u  10 B1g  12 B2u                
  0.742   0.744   0.744   0.779   0.799   0.809   0.817   0.822
 13 B2u   4 B1u  15 Ag    3 B2g  13 B3u   4 B3g  16 Ag   14 B3u                
  0.823   0.840   0.842   0.849   0.863   0.863   0.871   0.924
 11 B1g   5 B1u  14 B2u  17 Ag   15 B2u  12 B1g   3 Au    5 B3g                
  0.926   0.941   1.000   1.083   1.086   1.097   1.113   1.119
  4 B2g   6 B1u   4 Au    6 B3g  18 Ag   16 B2u  13 B1g  17 B2u                
  1.120   1.135   1.155   1.160   1.181   1.193   1.194   1.238
 15 B3u  14 B1g  19 Ag   16 B3u  20 Ag   18 B2u  15 B1g  16 B1g                
  1.242   1.257   1.288   1.293   1.343   1.397   1.436   1.457
 17 B3u  18 B3u  21 Ag   19 B2u  20 B2u  17 B1g  19 B3u  18 B1g                
  1.494   1.516   1.525   1.555   1.661   1.677   1.697   1.726
  7 B1u   5 B2g  21 B2u  22 Ag    5 Au    6 B2g  23 Ag   20 B3u                
  1.730   1.746   1.763   1.772   1.773   1.781   1.792   1.972
  8 B1u  19 B1g   7 B2g   7 B3g   9 B1u  22 B2u   6 Au   24 Ag                 
  2.098   2.098   2.165   2.168   2.174   2.176   2.217   2.263
 25 Ag   21 B3u  23 B2u   8 B3g  22 B3u  20 B1g  26 Ag   23 B3u                
  2.272   2.273   2.281   2.356   2.372   2.407   2.440   2.457
 24 B2u  21 B1g  10 B1u  27 Ag   25 B2u  22 B1g  28 Ag    8 B2g                
  2.465   2.495   2.547   2.571   2.605   2.642   2.655   2.664
 24 B3u   9 B3g   7 Au   26 B2u  11 B1u  10 B3g  23 B1g   9 B2g                
  2.689   2.730   2.908   2.914   2.951   2.958   2.986   2.987
  8 Au   25 B3u  29 Ag   26 B3u   9 Au   27 B2u  24 B1g  11 B3g                
  3.058   3.104   3.118   3.167   3.196   3.222   3.296   3.437
 30 Ag   25 B1g  28 B2u  27 B3u  29 B2u  31 Ag   26 B1g  30 B2u                
  3.713   3.824   4.493   4.509   4.528   4.549   4.564   4.696
 31 B2u  27 B1g  32 Ag   28 B3u  32 B2u  28 B1g  33 Ag   29 B3u                
  4.770   4.821   4.934   5.221
 33 B2u  34 Ag   29 B1g  34 B2u                                                

 Occupation and symmetry of molecular orbitals

 Point group: D2h (8 irreducible representations).

                           Ag   B1g  B2g  B3g  Au   B1u  B2u  B3u   All 
 ------------------------------------------------------------------------
 All molecular orbitals:
  - Alpha                  34   29   9    11   9    11   34   29    166 
  - Beta                   34   29   9    11   9    11   34   29    166 
 ------------------------------------------------------------------------
 Alpha orbitals:
  - Frozen occupied        3    2    0    0    0    0    3    2     10  
  - Active occupied        6    4    1    1    1    2    4    5     24  
  - Active virtual         25   23   8    10   8    9    27   22    132 
  - Frozen virtual         0    0    0    0    0    0    0    0     0   
 ------------------------------------------------------------------------
 Beta orbitals:
  - Frozen occupied        3    2    0    0    0    0    3    2     10  
  - Active occupied        6    4    1    1    1    2    4    5     24  
  - Active virtual         25   23   8    10   8    9    27   22    132 
  - Frozen virtual         0    0    0    0    0    0    0    0     0   
 ------------------------------------------------------------------------

 Import integrals:   CPU 0.00 s  wall 0.00 s

 Import integrals:   CPU 34.33 s  wall 35.94 s

 MP2 amplitudes:   CPU 12.28 s  wall 12.37 s

Running a double precision version
           CCSD T amplitudes will be solved using DIIS.

           Start     Size      MaxIter   EConv     TConv     
           3         7         100       1.00e-06  1.00e-04  
 ------------------------------------------------------------------------------
           Energy (a.u.)   Ediff      Tdiff       Comment
 ------------------------------------------------------------------------------
          -384.59945369                           
     1    -384.59280897   6.64e-03   1.12e+00     
     2    -384.63717814   4.44e-02   1.63e-01     
     3    -384.63736515   1.87e-04   6.29e-02     
     4    -384.64175252   4.39e-03   1.82e-02     Switched to DIIS steps.
     5    -384.64365211   1.90e-03   1.69e-02     
     6    -384.64371782   6.57e-05   3.37e-03     
     7    -384.64368270   3.51e-05   1.92e-03     
     8    -384.64368144   1.26e-06   4.27e-04     
     9    -384.64368227   8.33e-07   1.90e-04     
    10    -384.64368233   6.54e-08   5.47e-05     
 ------------------------------------------------------------------------------
          -384.64368233                           CCSD T converged.

End of double precision
 SCF energy                 = -383.32913923
 MP2 energy                 = -384.59945369
 CCSD correlation energy    =   -1.31454311
 CCSD total energy          = -384.64368233

 CCSD  T1^2 = 0.0127  T2^2 = 0.5332  Leading amplitudes:

 Amplitude    Orbitals with energies
  0.0332       1 (Au) A                  ->    3 (Au) A                   
              -0.2602                          0.8712                     
  0.0332       1 (Au) B                  ->    3 (Au) B                   
              -0.2602                          0.8712                     
 -0.0261       1 (B3g) A                 ->    4 (B3g) A                  
              -0.3740                          0.8092                     
 -0.0261       1 (B3g) B                 ->    4 (B3g) B                  
              -0.3740                          0.8092                     

 Amplitude    Orbitals with energies
 -0.0998       1 (Au) A      1 (Au) B    ->    2 (B2g) A     2 (B2g) B    
              -0.2602       -0.2602            0.0744        0.0744       
  0.0998       1 (Au) A      1 (Au) B    ->    2 (B2g) B     2 (B2g) A    
              -0.2602       -0.2602            0.0744        0.0744       
  0.0998       1 (Au) B      1 (Au) A    ->    2 (B2g) A     2 (B2g) B    
              -0.2602       -0.2602            0.0744        0.0744       
 -0.0998       1 (Au) B      1 (Au) A    ->    2 (B2g) B     2 (B2g) A    
              -0.2602       -0.2602            0.0744        0.0744       

 CCSD calculation:   CPU 132.72 s  wall 136.96 s

 Total ccman2 time:   CPU 187.38 s  wall 193.41 s

 
 --------------------------------------------------------------
             Orbital Energies (a.u.) and Symmetries
 --------------------------------------------------------------
 
 Alpha MOs, Restricted
 -- Occupied --                  
-11.244 -11.243 -11.242 -11.242 -11.242 -11.242 -11.239 -11.239
  1 Ag    1 B2u   1 B1g   1 B3u   2 Ag    2 B2u   2 B3u   3 Ag                 
-11.238 -11.238  -1.165  -1.098  -1.038  -1.014  -0.955  -0.863
  2 B1g   3 B2u   4 Ag    3 B3u   4 B2u   5 Ag    3 B1g   4 B3u                
 -0.820  -0.806  -0.706  -0.691  -0.667  -0.622  -0.611  -0.577
  5 B2u   6 Ag    4 B1g   5 B3u   7 Ag    6 B2u   8 Ag    6 B3u                
 -0.573  -0.545  -0.534  -0.522  -0.478  -0.477  -0.438  -0.374
  5 B1g   7 B2u   7 B3u   1 B1u   9 Ag    6 B1g   1 B2g   1 B3g                
 -0.323  -0.260
  2 B1u   1 Au                                                                 
 -- Virtual --                   
  0.074   0.135   0.188   0.239   0.258   0.268   0.280   0.306
  2 B2g   2 B3g   3 B1u  10 Ag    8 B3u   8 B2u   2 Au   11 Ag                 
  0.318   0.319   0.336   0.356   0.411   0.424   0.428   0.482
  7 B1g   9 B2u   9 B3u   8 B1g   3 B3g  10 B2u  12 Ag   11 B2u                
  0.483   0.492   0.504   0.550   0.685   0.704   0.713   0.723
 10 B3u  13 Ag    9 B1g  11 B3u  14 Ag   12 B3u  10 B1g  12 B2u                
  0.742   0.744   0.744   0.779   0.799   0.809   0.817   0.822
 13 B2u   4 B1u  15 Ag    3 B2g  13 B3u   4 B3g  16 Ag   14 B3u                
  0.823   0.840   0.842   0.849   0.863   0.863   0.871   0.924
 11 B1g   5 B1u  14 B2u  17 Ag   15 B2u  12 B1g   3 Au    5 B3g                
  0.926   0.941   1.000   1.083   1.086   1.097   1.113   1.119
  4 B2g   6 B1u   4 Au    6 B3g  18 Ag   16 B2u  13 B1g  17 B2u                
  1.120   1.135   1.155   1.160   1.181   1.193   1.194   1.238
 15 B3u  14 B1g  19 Ag   16 B3u  20 Ag   18 B2u  15 B1g  16 B1g                
  1.242   1.257   1.288   1.293   1.343   1.397   1.436   1.457
 17 B3u  18 B3u  21 Ag   19 B2u  20 B2u  17 B1g  19 B3u  18 B1g                
  1.494   1.516   1.525   1.555   1.661   1.677   1.697   1.726
  7 B1u   5 B2g  21 B2u  22 Ag    5 Au    6 B2g  23 Ag   20 B3u                
  1.730   1.746   1.763   1.772   1.773   1.781   1.792   1.972
  8 B1u  19 B1g   7 B2g   7 B3g   9 B1u  22 B2u   6 Au   24 Ag                 
  2.098   2.098   2.165   2.168   2.174   2.176   2.217   2.263
 25 Ag   21 B3u  23 B2u   8 B3g  22 B3u  20 B1g  26 Ag   23 B3u                
  2.272   2.273   2.281   2.356   2.372   2.407   2.440   2.457
 24 B2u  21 B1g  10 B1u  27 Ag   25 B2u  22 B1g  28 Ag    8 B2g                
  2.465   2.495   2.547   2.571   2.605   2.642   2.655   2.664
 24 B3u   9 B3g   7 Au   26 B2u  11 B1u  10 B3g  23 B1g   9 B2g                
  2.689   2.730   2.908   2.914   2.951   2.958   2.986   2.987
  8 Au   25 B3u  29 Ag   26 B3u   9 Au   27 B2u  24 B1g  11 B3g                
  3.058   3.104   3.118   3.167   3.196   3.222   3.296   3.437
 30 Ag   25 B1g  28 B2u  27 B3u  29 B2u  31 Ag   26 B1g  30 B2u                
  3.713   3.824   4.493   4.509   4.528   4.549   4.564   4.696
 31 B2u  27 B1g  32 Ag   28 B3u  32 B2u  28 B1g  33 Ag   29 B3u                
  4.770   4.821   4.934   5.221
 33 B2u  34 Ag   29 B1g  34 B2u                                                
 
 Beta MOs, Restricted
 -- Occupied --                  
-11.244 -11.243 -11.242 -11.242 -11.242 -11.242 -11.239 -11.239
  1 Ag    1 B2u   1 B1g   1 B3u   2 Ag    2 B2u   2 B3u   3 Ag                 
-11.238 -11.238  -1.165  -1.098  -1.038  -1.014  -0.955  -0.863
  2 B1g   3 B2u   4 Ag    3 B3u   4 B2u   5 Ag    3 B1g   4 B3u                
 -0.820  -0.806  -0.706  -0.691  -0.667  -0.622  -0.611  -0.577
  5 B2u   6 Ag    4 B1g   5 B3u   7 Ag    6 B2u   8 Ag    6 B3u                
 -0.573  -0.545  -0.534  -0.522  -0.478  -0.477  -0.438  -0.374
  5 B1g   7 B2u   7 B3u   1 B1u   9 Ag    6 B1g   1 B2g   1 B3g                
 -0.323  -0.260
  2 B1u   1 Au                                                                 
 -- Virtual --                   
  0.074   0.135   0.188   0.239   0.258   0.268   0.280   0.306
  2 B2g   2 B3g   3 B1u  10 Ag    8 B3u   8 B2u   2 Au   11 Ag                 
  0.318   0.319   0.336   0.356   0.411   0.424   0.428   0.482
  7 B1g   9 B2u   9 B3u   8 B1g   3 B3g  10 B2u  12 Ag   11 B2u                
  0.483   0.492   0.504   0.550   0.685   0.704   0.713   0.723
 10 B3u  13 Ag    9 B1g  11 B3u  14 Ag   12 B3u  10 B1g  12 B2u                
  0.742   0.744   0.744   0.779   0.799   0.809   0.817   0.822
 13 B2u   4 B1u  15 Ag    3 B2g  13 B3u   4 B3g  16 Ag   14 B3u                
  0.823   0.840   0.842   0.849   0.863   0.863   0.871   0.924
 11 B1g   5 B1u  14 B2u  17 Ag   15 B2u  12 B1g   3 Au    5 B3g                
  0.926   0.941   1.000   1.083   1.086   1.097   1.113   1.119
  4 B2g   6 B1u   4 Au    6 B3g  18 Ag   16 B2u  13 B1g  17 B2u                
  1.120   1.135   1.155   1.160   1.181   1.193   1.194   1.238
 15 B3u  14 B1g  19 Ag   16 B3u  20 Ag   18 B2u  15 B1g  16 B1g                
  1.242   1.257   1.288   1.293   1.343   1.397   1.436   1.457
 17 B3u  18 B3u  21 Ag   19 B2u  20 B2u  17 B1g  19 B3u  18 B1g                
  1.494   1.516   1.525   1.555   1.661   1.677   1.697   1.726
  7 B1u   5 B2g  21 B2u  22 Ag    5 Au    6 B2g  23 Ag   20 B3u                
  1.730   1.746   1.763   1.772   1.773   1.781   1.792   1.972
  8 B1u  19 B1g   7 B2g   7 B3g   9 B1u  22 B2u   6 Au   24 Ag                 
  2.098   2.098   2.165   2.168   2.174   2.176   2.217   2.263
 25 Ag   21 B3u  23 B2u   8 B3g  22 B3u  20 B1g  26 Ag   23 B3u                
  2.272   2.273   2.281   2.356   2.372   2.407   2.440   2.457
 24 B2u  21 B1g  10 B1u  27 Ag   25 B2u  22 B1g  28 Ag    8 B2g                
  2.465   2.495   2.547   2.571   2.605   2.642   2.655   2.664
 24 B3u   9 B3g   7 Au   26 B2u  11 B1u  10 B3g  23 B1g   9 B2g                
  2.689   2.730   2.908   2.914   2.951   2.958   2.986   2.987
  8 Au   25 B3u  29 Ag   26 B3u   9 Au   27 B2u  24 B1g  11 B3g                
  3.058   3.104   3.118   3.167   3.196   3.222   3.296   3.437
 30 Ag   25 B1g  28 B2u  27 B3u  29 B2u  31 Ag   26 B1g  30 B2u                
  3.713   3.824   4.493   4.509   4.528   4.549   4.564   4.696
 31 B2u  27 B1g  32 Ag   28 B3u  32 B2u  28 B1g  33 Ag   29 B3u                
  4.770   4.821   4.934   5.221
 33 B2u  34 Ag   29 B1g  34 B2u                                                
 --------------------------------------------------------------
 
          Ground-State Mulliken Net Atomic Charges

     Atom                 Charge (a.u.)
  ----------------------------------------
      1 C                     0.027901
      2 C                     0.027901
      3 C                    -0.222768
      4 C                    -0.201563
      5 C                    -0.201563
      6 C                    -0.222768
      7 C                    -0.222768
      8 C                    -0.222768
      9 C                    -0.201563
     10 C                    -0.201563
     11 H                     0.204858
     12 H                     0.205523
     13 H                     0.205523
     14 H                     0.204858
     15 H                     0.204858
     16 H                     0.205523
     17 H                     0.205523
     18 H                     0.204858
  ----------------------------------------
  Sum of atomic charges =     0.000000

 -----------------------------------------------------------------
                    Cartesian Multipole Moments
 -----------------------------------------------------------------
    Charge (ESU x 10^10)
                 0.0000
    Dipole Moment (Debye)
         X      -0.0000      Y       0.0000      Z      -0.0000
       Tot       0.0000
    Quadrupole Moments (Debye-Ang)
        XX     -50.1135     XY      -0.0000     YY     -50.9585
        XZ      -0.0000     YZ       0.0000     ZZ     -64.7456
    Octopole Moments (Debye-Ang^2)
       XXX       0.0000    XXY       0.0000    XYY      -0.0000
       YYY       0.0000    XXZ      -0.0000    XYZ      -0.0000
       YYZ       0.0000    XZZ       0.0000    YZZ       0.0000
       ZZZ      -0.0000
    Hexadecapole Moments (Debye-Ang^3)
      XXXX   -1090.8522   XXXY      -0.0000   XXYY    -266.4211
      XYYY       0.0000   YYYY    -464.8077   XXXZ      -0.0000
      XXYZ      -0.0000   XYYZ       0.0000   YYYZ      -0.0000
      XXZZ    -245.2101   XYZZ      -0.0000   YYZZ    -109.5420
      XZZZ       0.0000   YZZZ      -0.0000   ZZZZ     -70.4904
 -----------------------------------------------------------------
 Mayer SCF Bond Order, atomic valence on the diagonal:

            1           2           3           4           5           6
    1  -0.3578397   0.0503252  -0.0521887  -0.0053470  -0.0047779  -0.0060526
    2   0.0503252   1.6235344   0.0005701   0.0325097  -0.0107529   0.3623430
    3  -0.0521887   0.0005701   3.8942290   1.5160959  -0.0101164   0.1163211
    4  -0.0053470   0.0325097   1.5160959   3.8946838   1.3716105  -0.0101164
    5  -0.0047779  -0.0107529  -0.0101164   1.3716105   3.8946838   1.5160959
    6  -0.0060526   0.3623430   0.1163211  -0.0101164   1.5160959   3.8942290
    7   0.0084623   0.3903598   0.0101627   0.0011586   0.0318725  -0.0111051
    8  -0.0178066   0.0056868  -0.0111051   0.0318725   0.0011586   0.0101627
    9   0.0041628   0.0132318   0.0318725   0.0017952   0.0248854   0.0011586
   10   0.0069370  -0.0058198   0.0011586   0.0248854   0.0017952   0.0318725
   11  -0.0000185   0.0021463   0.0015491  -0.0000554   0.0000234   0.0006695
   12  -0.0001848  -0.0003955   0.0007018   0.0000770   0.0000151  -0.0000210
   13   0.0033890   0.0025384  -0.0000210   0.0000151   0.0000770   0.0007018
   14   0.0083666  -0.0129042   0.0006695   0.0000234  -0.0000554   0.0015491
   15  -0.0091315  -0.0005656   0.9369587  -0.0109836   0.0034788  -0.0004666
   16   0.0053695  -0.0010729  -0.0116385   0.9402736  -0.0136560   0.0047931
   17   0.0055044  -0.0003054   0.0047931  -0.0136560   0.9402736  -0.0116385
   18   0.0068389  -0.0128306  -0.0004666   0.0034788  -0.0109836   0.9369587
            7           8           9          10          11          12
    1   0.0084623  -0.0178066   0.0041628   0.0069370  -0.0000185  -0.0001848
    2   0.3903598   0.0056868   0.0132318  -0.0058198   0.0021463  -0.0003955
    3   0.0101627  -0.0111051   0.0318725   0.0011586   0.0015491   0.0007018
    4   0.0011586   0.0318725   0.0017952   0.0248854  -0.0000554   0.0000770
    5   0.0318725   0.0011586   0.0248854   0.0017952   0.0000234   0.0000151
    6  -0.0111051   0.0101627   0.0011586   0.0318725   0.0006695  -0.0000210
    7   3.8942290   0.1163211  -0.0101164   1.5160959  -0.0004666   0.0047931
    8   0.1163211   3.8942290   1.5160959  -0.0101164   0.9369587  -0.0116385
    9  -0.0101164   1.5160959   3.8946838   1.3716105  -0.0109836   0.9402736
   10   1.5160959  -0.0101164   1.3716105   3.8946838   0.0034788  -0.0136560
   11  -0.0004666   0.9369587  -0.0109836   0.0034788   0.9272422   0.0006279
   12   0.0047931  -0.0116385   0.9402736  -0.0136560   0.0006279   0.9266054
   13  -0.0116385   0.0047931  -0.0136560   0.9402736   0.0011900   0.0006903
   14   0.9369587  -0.0004666   0.0034788  -0.0109836   0.0000542   0.0011900
   15   0.0006695   0.0015491  -0.0000554   0.0000234   0.0032604   0.0000508
   16  -0.0000210   0.0007018   0.0000770   0.0000151   0.0000508   0.0000270
   17   0.0007018  -0.0000210   0.0000151   0.0000770   0.0000053   0.0000002
   18   0.0015491   0.0006695   0.0000234  -0.0000554   0.0002173   0.0000053
           13          14          15          16          17          18
    1   0.0033890   0.0083666  -0.0091315   0.0053695   0.0055044   0.0068389
    2   0.0025384  -0.0129042  -0.0005656  -0.0010729  -0.0003054  -0.0128306
    3  -0.0000210   0.0006695   0.9369587  -0.0116385   0.0047931  -0.0004666
    4   0.0000151   0.0000234  -0.0109836   0.9402736  -0.0136560   0.0034788
    5   0.0000770  -0.0000554   0.0034788  -0.0136560   0.9402736  -0.0109836
    6   0.0007018   0.0015491  -0.0004666   0.0047931  -0.0116385   0.9369587
    7  -0.0116385   0.9369587   0.0006695  -0.0000210   0.0007018   0.0015491
    8   0.0047931  -0.0004666   0.0015491   0.0007018  -0.0000210   0.0006695
    9  -0.0136560   0.0034788  -0.0000554   0.0000770   0.0000151   0.0000234
   10   0.9402736  -0.0109836   0.0000234   0.0000151   0.0000770  -0.0000554
   11   0.0011900   0.0000542   0.0032604   0.0000508   0.0000053   0.0002173
   12   0.0006903   0.0011900   0.0000508   0.0000270   0.0000002   0.0000053
   13   0.9266054   0.0006279   0.0000053   0.0000002   0.0000270   0.0000508
   14   0.0006279   0.9272422   0.0002173   0.0000053   0.0000508   0.0032604
   15   0.0000053   0.0002173   0.9272422   0.0006279   0.0011900   0.0000542
   16   0.0000002   0.0000053   0.0006279   0.9266054   0.0006903   0.0011900
   17   0.0000270   0.0000508   0.0011900   0.0006903   0.9266054   0.0006279
   18   0.0000508   0.0032604   0.0000542   0.0011900   0.0006279   0.9272422


 Total job time:  229.25s(wall), 217.82s(cpu) 
 Tue Jan 23 16:32:29 2024

        *************************************************************
        *                                                           *
        *  Thank you very much for using Q-Chem.  Have a nice day.  *
        *                                                           *
        *************************************************************


