                  Welcome to Q-Chem
     A Quantum Leap Into The Future Of Chemistry


 Q-Chem 6.0 (devel), Q-Chem, Inc., Pleasanton, CA (2022)

 E. Epifanovsky,  A. T. B. Gilbert,  Xintian Feng,  Joonho Lee,  Yuezhi Mao,  
 N. Mardirossian,  P. Pokhilko,  A. White,  M. Wormit,  M. P. Coons,  
 A. L. Dempwolff,  Zhengting Gan,  D. Hait,  P. R. Horn,  L. D. Jacobson,  
 I. Kaliman,  J. Kussmann,  A. W. Lange,  Ka Un Lao,  D. S. Levine,  Jie Liu,  
 S. C. McKenzie,  A. F. Morrison,  K. Nanda,  F. Plasser,  D. R. Rehn,  
 M. L. Vidal,  Zhi-Qiang You,  Ying Zhu,  B. Alam,  B. Albrecht,  
 A. Aldossary,  E. Alguire,  J. H. Andersen,  V. Athavale,  D. Barton,  
 K. Begam,  A. Behn,  N. Bellonzi,  Y. A. Bernard,  E. J. Berquist,  
 H. Burton,  A. Carreras,  K. Carter-Fenk,  Romit Chakraborty,  
 Chandrima Chakravarty,  Junhan Chen,  A. D. Chien,  K. D. Closser,  
 V. Cofer-Shabica,  L. Cunha,  S. Dasgupta,  Jia Deng,  M. de Wergifosse,  
 M. Diedenhofen,  Hainam Do,  S. Ehlert,  Po-Tung Fang,  S. Fatehi,  
 Qingguo Feng,  T. Friedhoff,  B. Ganoe,  J. Gayvert,  Qinghui Ge,  
 G. Gidofalvi,  M. Goldey,  J. Gomes,  C. Gonzalez-Espinoza,  S. Gulania,  
 A. Gunina,  J. A. Gyamfi,  M. W. D. Hanson-Heine,  P. H. P. Harbach,  
 A. W. Hauser,  M. F. Herbst,  M. Hernandez Vera,  M. Hodecker,  
 Z. C. Holden,  S. Houck,  Xunkun Huang,  Kerwin Hui,  B. C. Huynh,  
 K. Ikeda,  M. Ivanov,  Hyunjun Ji,  Zuxin Jin,  Hanjie Jiang,  B. Kaduk,  
 S. Kaehler,  R. Kang,  K. Khistyaev,  Jaehoon Kim,  Yongbin Kim,  
 P. Klunzinger,  Z. Koczor-Benda,  Joong Hoon Koh,  D. Kosenkov,  
 Saikiran Kotaru,  L. Koulias,  T. Kowalczyk,  C. M. Krauter,  K. Kue,  
 A. Kunitsa,  T. Kus,  A. Landau,  K. V. Lawler,  D. Lefrancois,  S. Lehtola,  
 Rain Li,  Shaozhi Li,  Yi-Pei Li,  Jiashu Liang,  M. Liebenthal,  
 Hung-Hsuan Lin,  You-Sheng Lin,  Fenglai Liu,  Kuan-Yu Liu,  
 M. Loipersberger,  A. Luenser,  C. Malbon,  A. Manjanath,  P. Manohar,  
 E. Mansoor,  S. F. Manzer,  Shan-Ping Mao,  A. V. Marenich,  T. Markovich,  
 S. Mason,  F. Matz,  S. A. Maurer,  P. F. McLaughlin,  M. F. S. J. Menger,  
 J.-M. Mewes,  S. A. Mewes,  P. Morgante,  Mohammad Mostafanejad,  
 J. W. Mullinax,  K. J. Oosterbaan,  G. Paran,  V. Parravicini,  
 Alexander C. Paul,  Suranjan K. Paul,  F. Pavosevic,  Zheng Pei,  S. Prager,  
 E. I. Proynov,  E. Ramos,  B. Rana,  A. E. Rask,  A. Rettig,  R. M. Richard,  
 F. Rob,  E. Rossomme,  T. Scheele,  M. Scheurer,  M. Schneider,  
 P. E. Schneider,  N. Sergueev,  S. M. Sharada,  Hengyuan Shen,  
 W. Skomorowski,  D. W. Small,  C. J. Stein,  Yingli Su,  Yu-Chuan Su,  
 E. J. Sundstrom,  Zhen Tao,  J. Thirman,  Hung-Yi Tsai,  T. Tsuchimochi,  
 N. M. Tubman,  C. Utku,  S. P. Veccham,  O. Vydrov,  J. Wenzel,  
 Jonathan Wong,  J. Witte,  A. Yamada,  Chou-Hsun Yang,  Kun Yao,  
 S. Yeganeh,  S. R. Yost,  A. Zech,  F. Zeller,  Igor Ying Zhang,  
 Xing Zhang,  Yu Zhang,  D. Zuev,  A. Aspuru-Guzik,  A. T. Bell,  
 N. A. Besley,  K. B. Bravaya,  B. R. Brooks,  D. Casanova,  Jeng-Da Chai,  
 Hsing-Ta Chen,  S. Coriani,  C. J. Cramer,  A. E. DePrince, III,  
 R. A. DiStasio Jr.,  A. Dreuw,  B. D. Dunietz,  T. R. Furlani,  
 W. A. Goddard III,  S. Grimme,  S. Hammes-Schiffer,  T. Head-Gordon,  
 W. J. Hehre,  Chao-Ping Hsu,  T.-C. Jagau,  Yousung Jung,  A. Klamt,  
 Jing Kong,  D. S. Lambrecht,  Xiangyuan Li,  WanZhen Liang,  N. J. Mayhall,  
 C. W. McCurdy,  J. B. Neaton,  T. Neudecker,  C. Ochsenfeld,  
 J. A. Parkhill,  R. Peverati,  V. A. Rassolov,  Haisheng Ren,  Yihan Shao,  
 L. V. Slipchenko,  R. P. Steele,  J. E. Subotnik,  A. J. W. Thom,  
 A. Tkatchenko,  D. G. Truhlar,  T. Van Voorhis,  Fan Wang,  
 T. A. Wesolowski,  K. B. Whaley,  H. L. Woodcock III,  P. M. Zimmerman,  
 S. Faraji,  P. M. W. Gill,  M. Head-Gordon,  J. M. Herbert,  A. I. Krylov

 Contributors to earlier versions of Q-Chem not listed above: 
 R. D. Adamson,  B. Austin,  R. Baer,  J. Baker,  G. J. O. Beran,  
 K. Brandhorst,  S. T. Brown,  E. F. C. Byrd,  Arup K. Chakraborty,  
 G. K. L. Chan,  Chun-Min Chang,  Yunqing Chen,  C.-L. Cheng,  
 Siu Hung Chien,  D. M. Chipman,  D. L. Crittenden,  H. Dachsel,  
 R. J. Doerksen,  A. D. Dutoi,  R. G. Edgar,  J. Fosso-Tande,  
 L. Fusti-Molnar,  D. Ghosh,  A. Ghysels,  A. Golubeva-Zadorozhnaya,  
 J. Gonthier,  M. S. Gordon,  S. R. Gwaltney,  G. Hawkins,  J. E. Herr,  
 A. Heyden,  S. Hirata,  E. G. Hohenstein,  G. Kedziora,  F. J. Keil,  
 C. Kelley,  Jihan Kim,  R. A. King,  R. Z. Khaliullin,  P. P. Korambath,  
 W. Kurlancheek,  A. Laurent,  A. M. Lee,  M. S. Lee,  S. V. Levchenko,  
 Ching Yeh Lin,  D. Liotard,  E. Livshits,  R. C. Lochan,  I. Lotan,  
 L. A. Martinez-Martinez,  P. E. Maslen,  N. Nair,  D. P. O'Neill,  
 D. Neuhauser,  E. Neuscamman,  C. M. Oana,  R. Olivares-Amaya,  R. Olson,  
 T. M. Perrine,  B. Peters,  P. A. Pieniazek,  A. Prociuk,  Y. M. Rhee,  
 J. Ritchie,  M. A. Rohrdanz,  E. Rosta,  N. J. Russ,  H. F. Schaefer III,  
 M. W. Schmidt,  N. E. Schultz,  S. Sharma,  N. Shenvi,  C. D. Sherrill,  
 A. C. Simmonett,  A. Sodt,  T. Stein,  D. Stuck,  K. S. Thanthiriwatte,  
 V. Vanovschi,  L. Vogt,  Tao Wang,  A. Warshel,  M. A. Watson,  
 C. F. Williams,  Q. Wu,  X. Xu,  Jun Yang,  W. Zhang,  Yan Zhao

   Please cite Q-Chem as follows:
  "Software for the frontiers of quantum chemistry:
   An overview of developments in the Q-Chem 5 package"
   J. Chem. Phys. 155, 084801 (2021)
   https://doi.org/10.1063/5.0055522 (open access)

 Q-Chem 6.0.1 for Intel X86 EM64T Linux

 Parts of Q-Chem use Armadillo 9.900.5 (Nocturnal Misbehaviour).
 http://arma.sourceforge.net/

 Q-Chem begins on Thu Jan 25 18:11:04 2024  

 Host: atlas-184
0

     Scratch files written to ./qchem455441//
 Processing $rem in /scratch/abel/SOFTWARE/qchem/config/preferences:
 Processing $rem in /dipc/acebg/.qchemrc:
 Core orbitals will be frozen

 Checking the input file for inconsistencies... 	...done.

--------------------------------------------------------------
User input:
--------------------------------------------------------------
$comment
 RAS-SF CALCULATION
$end

$molecule
 READ tetracene_opt_singlet.molecule
$end

$rem
!**CALCULATION TYPE***     
JOBTYPE            sp    
BASIS              6-31G*
!BASIS2             STO-3G

!***SCF REFERENCE***
!INPUT_BOHR         TRUE
!SKIP_SCFMAN        FALSE
UNRESTRICTED       FALSE
!SCF_GUESS          core
!SCF_GUESS_MIX      FALSE
!SCF_GUESS_ALWAYS   FALSE
MAX_SCF_CYCLES     500
!SCF_CONVERGENCE    10
SCF_ALGORITHM      DIIS_GDM !DIIS,DM,DIIS_DM,GDM,DIIS_GDM,GD

!SYMMETRY           TRUE   !use of symmetry for calculating integrals
!SYM_IGNORE         FALSE  !turn off using symmetry
!SYM_TOL            5      !tolerance for determining point group
!USE_ABELIAN_SUBGROUP      !define to use abelian group

!THRESH             14
!SCF_FINAL_PRINT     1 !0,1,2,3

!****CCSD****
CORRELATION        CCSD
!CC_CONVERGENCE     6
!CC_MAX_ITER        200
CC_PRINT	   1
!CHOLESKY_TOL       3 !Toler. decomposition 2e integrals
CC_REF_PROP  	   1 !one-particle CCSD properties calculation
!CC_REF_PROP_TE	   0 !two-particle CCSD properties calculation
!CC_FNO_THRESH
!CC_BACKEND	   XM !Used to specify the computational back-end of CCMAN2.

!****MEMORY****
MEM_TOTAL          90000 !Default 2000 MB
MEM_STATIC         1000  !Default 64 MB
CC_MEMORY          72000

!**Molecular Properties and Analysis **                                                                                          
!POP_MULLIKEN       TRUE   !Run Mulliken population analysis
!LOWDIN_POPULATION  TRUE   !Run Löwdin population analysis
GUI                0       !Checkpoints generation
!STATE_ANALYSIS     TRUE

!**Wave function analysis**
!PLOTS = 0     ! Note: This can be omitted, default is 0
!NTO_PAIRS = 2 ! Note: This can be omitted, default is 2
!GUI 0
!MOLDEN_FORMAT      TRUE
!PRINT_ORBITALS     15
$end

!$plots
!   grid_points 100 100 100
!   grid_range  (-10,10) (-10,10) (-10,10)
!$end

--------------------------------------------------------------
 ----------------------------------------------------------------
             Standard Nuclear Orientation (Angstroms)
    I     Atom           X                Y                Z
 ----------------------------------------------------------------
    1      C       0.0000002188    -0.7282540188     0.0008017092
    2      C      -1.2207052746    -1.3992280118    -0.0018011386
    3      H      -1.2261427012    -2.4836772361    -0.0033764159
    4      C       1.2207081982    -1.3992259422     0.0033054321
    5      H       1.2261474362    -2.4836746482     0.0051990930
    6      C       2.4728705352    -0.7109288954     0.0026585214
    7      C       3.6933843145    -1.3895468780     0.0054990200
    8      H       3.6912698368    -2.4735216295     0.0101982845
    9      C       4.8951625276    -0.6951136790     0.0022317856
   10      H       5.8317025073    -1.2370466889     0.0045873165
   11      C       4.8951698125     0.6950863412    -0.0042218962
   12      H       5.8317157882     1.2370045515    -0.0077605937
   13      C       3.6933986099     1.3895408935    -0.0060711048
   14      H       3.6912882173     2.4735158387    -0.0107273443
   15      C       2.4728749790     0.7109408505    -0.0019787702
   16      C      -2.4728683323    -0.7109320216    -0.0020626534
   17      C      -3.6933779290    -1.3895491796    -0.0061374954
   18      H      -3.6912592123    -2.4735238608    -0.0108510748
   19      C      -4.8951593786    -0.6951146350    -0.0041874034
   20      H      -5.8316964398    -1.2370465250    -0.0076843755
   21      C      -4.8951727029     0.6950851007     0.0023272769
   22      H      -5.8317217130     1.2370039111     0.0048148574
   23      C      -3.6934038059     1.3895388116     0.0055099792
   24      H      -3.6912977184     2.4735134779     0.0102326338
   25      C      -2.4728768497     0.7109387678     0.0025725219
   26      C      -1.2207179048     1.3992461788     0.0031737596
   27      H      -1.2261589783     2.4836960370     0.0049726451
   28      C      -0.0000008258     0.7282779777     0.0007731087
   29      C       1.2207137816     1.3992480899    -0.0017660019
   30      H       1.2261531349     2.4836982700    -0.0033649292
 ----------------------------------------------------------------
 Molecular Point Group                 C1    NOp =  1
 Largest Abelian Subgroup              C1    NOp =  1
 Nuclear Repulsion Energy =        1116.85311862 hartrees
 There are       60 alpha and       60 beta electrons
 Requested basis set is 6-31G(d)
 There are 96 shells and 294 basis functions
 Total memory of 90000 MB is distributed as follows: 
   MEM_STATIC is set to 1000 MB
   QALLOC/CCMAN JOB total memory use is  89000 MB
 Warning: actual memory use might exceed 90000 MB

 Total QAlloc Memory Limit  90000 MB
 Mega-Array Size       978 MB
 MEM_STATIC part      1000 MB

 A cutoff of  1.0D-14 yielded   3398 shell pairs
 There are     34269 function pairs
 Smallest overlap matrix eigenvalue = 1.82E-04

 Scale SEOQF with 1.000000e-02/1.000000e-01/1.000000e+00

 Standard Electronic Orientation quadrupole field applied
 Nucleus-field energy     =     0.0000000173 hartrees
 Guess from superposition of atomic densities
 Warning:  Energy on first SCF cycle will be non-variational
 SAD guess density has 120.000000 electrons

 -----------------------------------------------------------------------
  General SCF calculation program by
  Eric Jon Sundstrom, Paul Horn, Yuezhi Mao, Dmitri Zuev, Alec White,
  David Stuck, Shaama M.S., Shane Yost, Joonho Lee, David Small,
  Daniel Levine, Susi Lehtola, Hugh Burton, Evgeny Epifanovsky,
  Bang C. Huynh
 -----------------------------------------------------------------------
 Hartree-Fock
 A restricted SCF calculation will be
 performed using DIIS, GDM
 SCF converges when RMS gradient is below 1.0e-08
 ---------------------------------------
  Cycle       Energy         DIIS error
 ---------------------------------------
    1    -697.0873455731      5.12e-02  
    2    -688.4247612313      3.31e-03  Done DIIS. Switching to GDM
 ---------------------------------------
  Cycle       Energy        RMS Gradient
 ---------------------------------------
    1    -688.4247612313      6.71e-02   Descent step
    2    -688.5912710567      2.12e-02   Normal BFGS step
    3    -688.6145126036      1.83e-02   Normal BFGS step
    4    -688.6154864082      9.67e-03   Normal BFGS step
    5    -688.6158390241      2.03e-03   Normal BFGS step
    6    -688.6158662918      1.22e-03   Normal BFGS step
    7    -688.6158769697      2.32e-04   Normal BFGS step
    8    -688.6158774268      8.17e-05   Normal BFGS step
    9    -688.6158774859      1.78e-05   Normal BFGS step
   10    -688.6158774902      5.81e-06   Normal BFGS step
   11    -688.6158774907      2.33e-06   Normal BFGS step
   12    -688.6158774907      6.69e-07   Normal BFGS step
   13    -688.6158774907      1.16e-07   Normal BFGS step
   14    -688.6158774907      5.18e-08   Normal BFGS step
   15    -688.6158774907      1.25e-08   Normal BFGS step
   16    -688.6158774907      4.18e-09  Convergence criterion met
 ---------------------------------------
 SCF time:   CPU 77.16s  wall 78.00s 
 SCF   energy in the final basis set =     -688.6158774907
 Total energy in the final basis set =     -688.6158774907


 ------------------------------------------------------------------------------

   CCMAN2: suite of methods based on coupled cluster
           and equation of motion theories.

   Components:
   * libvmm-1.3-trunk
     by Evgeny Epifanovsky, Ilya Kaliman.
   * libtensor-2.5-trunk
     by Evgeny Epifanovsky, Michael Wormit, Dmitry Zuev, Sam Manzer, 
        Ilya Kaliman.
   * libcc-2.5-trunk
     by Evgeny Epifanovsky, Arik Landau, Tomasz Kus, Kirill Khistyaev, 
        Dmitry Zuev, Prashant Manohar, Xintian Feng, Anna Krylov, 
        Matthew Goldey, Alec White, Thomas Jagau, Kaushik Nanda, 
        Anastasia Gunina, Alexander Kunitsa, Joonho Lee.

   CCMAN original authors:
   Anna I. Krylov, C. David Sherrill, Steven R. Gwaltney,
   Edward F. C. Byrd (2000)
   Sergey V. Levchenko, Lyudmila V. Slipchenko, Tao Wang,
   Ana-Maria C. Cristian (2003)
   Piotr A. Pieniazek, C. Melania Oana, Evgeny Epifanovsky (2007)
   Prashant Manohar (2009)

 ------------------------------------------------------------------------------


 Allocating and initializing 72000MB of RAM...
 Calculation will run on 1 core.

 
 Alpha MOs, Restricted
 -- Occupied --                  
-11.244 -11.244 -11.244 -11.243 -11.243 -11.243 -11.240 -11.240
  1 A     2 A     3 A     4 A     5 A     6 A     7 A     8 A                  
-11.240 -11.240 -11.237 -11.237 -11.236 -11.236 -11.235 -11.235
  9 A    10 A    11 A    12 A    13 A    14 A    15 A    16 A                  
-11.235 -11.235  -1.189  -1.166  -1.125  -1.066  -1.062  -1.038
 17 A    18 A    19 A    20 A    21 A    22 A    23 A    24 A                  
 -1.009  -0.999  -0.933  -0.904  -0.839  -0.828  -0.814  -0.807
 25 A    26 A    27 A    28 A    29 A    30 A    31 A    32 A                  
 -0.771  -0.710  -0.684  -0.681  -0.673  -0.626  -0.625  -0.623
 33 A    34 A    35 A    36 A    37 A    38 A    39 A    40 A                  
 -0.609  -0.583  -0.576  -0.574  -0.571  -0.559  -0.548  -0.516
 41 A    42 A    43 A    44 A    45 A    46 A    47 A    48 A                  
 -0.516  -0.514  -0.485  -0.478  -0.469  -0.460  -0.410  -0.380
 49 A    50 A    51 A    52 A    53 A    54 A    55 A    56 A                  
 -0.368  -0.309  -0.305  -0.216
 57 A    58 A    59 A    60 A                                                  
 -- Virtual --                   
  0.025   0.117   0.125   0.182   0.204   0.209   0.243   0.244
 61 A    62 A    63 A    64 A    65 A    66 A    67 A    68 A                  
  0.247   0.272   0.276   0.296   0.311   0.314   0.320   0.322
 69 A    70 A    71 A    72 A    73 A    74 A    75 A    76 A                  
  0.333   0.341   0.382   0.384   0.398   0.431   0.436   0.448
 77 A    78 A    79 A    80 A    81 A    82 A    83 A    84 A                  
  0.466   0.467   0.474   0.492   0.505   0.530   0.533   0.543
 85 A    86 A    87 A    88 A    89 A    90 A    91 A    92 A                  
  0.544   0.619   0.666   0.693   0.696   0.705   0.712   0.731
 93 A    94 A    95 A    96 A    97 A    98 A    99 A   100 A                  
  0.733   0.748   0.748   0.756   0.757   0.773   0.779   0.786
101 A   102 A   103 A   104 A   105 A   106 A   107 A   108 A                  
  0.791   0.802   0.806   0.807   0.813   0.814   0.822   0.825
109 A   110 A   111 A   112 A   113 A   114 A   115 A   116 A                  
  0.828   0.837   0.843   0.843   0.852   0.853   0.858   0.866
117 A   118 A   119 A   120 A   121 A   122 A   123 A   124 A                  
  0.873   0.894   0.896   0.910   0.919   0.940   0.976   0.995
125 A   126 A   127 A   128 A   129 A   130 A   131 A   132 A                  
  1.000   1.058   1.065   1.081   1.091   1.101   1.107   1.108
133 A   134 A   135 A   136 A   137 A   138 A   139 A   140 A                  
  1.110   1.111   1.117   1.120   1.142   1.142   1.153   1.155
141 A   142 A   143 A   144 A   145 A   146 A   147 A   148 A                  
  1.170   1.196   1.197   1.206   1.215   1.218   1.233   1.247
149 A   150 A   151 A   152 A   153 A   154 A   155 A   156 A                  
  1.253   1.254   1.282   1.285   1.333   1.344   1.353   1.365
157 A   158 A   159 A   160 A   161 A   162 A   163 A   164 A                  
  1.422   1.444   1.450   1.468   1.474   1.477   1.486   1.487
165 A   166 A   167 A   168 A   169 A   170 A   171 A   172 A                  
  1.508   1.530   1.542   1.629   1.634   1.646   1.652   1.661
173 A   174 A   175 A   176 A   177 A   178 A   179 A   180 A                  
  1.662   1.694   1.698   1.705   1.720   1.737   1.746   1.759
181 A   182 A   183 A   184 A   185 A   186 A   187 A   188 A                  
  1.771   1.781   1.781   1.790   1.796   1.811   1.813   1.853
189 A   190 A   191 A   192 A   193 A   194 A   195 A   196 A                  
  1.857   1.996   2.043   2.062   2.101   2.105   2.125   2.152
197 A   198 A   199 A   200 A   201 A   202 A   203 A   204 A                  
  2.172   2.191   2.192   2.194   2.205   2.205   2.209   2.213
205 A   206 A   207 A   208 A   209 A   210 A   211 A   212 A                  
  2.225   2.256   2.256   2.274   2.275   2.281   2.297   2.307
213 A   214 A   215 A   216 A   217 A   218 A   219 A   220 A                  
  2.342   2.345   2.408   2.427   2.430   2.431   2.470   2.483
221 A   222 A   223 A   224 A   225 A   226 A   227 A   228 A                  
  2.487   2.502   2.533   2.550   2.557   2.595   2.610   2.635
229 A   230 A   231 A   232 A   233 A   234 A   235 A   236 A                  
  2.651   2.651   2.660   2.684   2.702   2.707   2.712   2.713
237 A   238 A   239 A   240 A   241 A   242 A   243 A   244 A                  
  2.731   2.756   2.758   2.829   2.916   2.947   2.990   2.998
245 A   246 A   247 A   248 A   249 A   250 A   251 A   252 A                  
  3.005   3.009   3.015   3.035   3.061   3.085   3.109   3.121
253 A   254 A   255 A   256 A   257 A   258 A   259 A   260 A                  
  3.154   3.170   3.188   3.201   3.222   3.225   3.294   3.314
261 A   262 A   263 A   264 A   265 A   266 A   267 A   268 A                  
  3.328   3.435   3.437   3.506   3.657   3.802   3.894   3.895
269 A   270 A   271 A   272 A   273 A   274 A   275 A   276 A                  
  4.512   4.518   4.524   4.533   4.545   4.546   4.561   4.568
277 A   278 A   279 A   280 A   281 A   282 A   283 A   284 A                  
  4.593   4.650   4.717   4.785   4.802   4.847   4.868   5.006
285 A   286 A   287 A   288 A   289 A   290 A   291 A   292 A                  
  5.184   5.329
293 A   294 A                                                                  
 
 Beta MOs, Restricted
 -- Occupied --                  
-11.244 -11.244 -11.244 -11.243 -11.243 -11.243 -11.240 -11.240
  1 A     2 A     3 A     4 A     5 A     6 A     7 A     8 A                  
-11.240 -11.240 -11.237 -11.237 -11.236 -11.236 -11.235 -11.235
  9 A    10 A    11 A    12 A    13 A    14 A    15 A    16 A                  
-11.235 -11.235  -1.189  -1.166  -1.125  -1.066  -1.062  -1.038
 17 A    18 A    19 A    20 A    21 A    22 A    23 A    24 A                  
 -1.009  -0.999  -0.933  -0.904  -0.839  -0.828  -0.814  -0.807
 25 A    26 A    27 A    28 A    29 A    30 A    31 A    32 A                  
 -0.771  -0.710  -0.684  -0.681  -0.673  -0.626  -0.625  -0.623
 33 A    34 A    35 A    36 A    37 A    38 A    39 A    40 A                  
 -0.609  -0.583  -0.576  -0.574  -0.571  -0.559  -0.548  -0.516
 41 A    42 A    43 A    44 A    45 A    46 A    47 A    48 A                  
 -0.516  -0.514  -0.485  -0.478  -0.469  -0.460  -0.410  -0.380
 49 A    50 A    51 A    52 A    53 A    54 A    55 A    56 A                  
 -0.368  -0.309  -0.305  -0.216
 57 A    58 A    59 A    60 A                                                  
 -- Virtual --                   
  0.025   0.117   0.125   0.182   0.204   0.209   0.243   0.244
 61 A    62 A    63 A    64 A    65 A    66 A    67 A    68 A                  
  0.247   0.272   0.276   0.296   0.311   0.314   0.320   0.322
 69 A    70 A    71 A    72 A    73 A    74 A    75 A    76 A                  
  0.333   0.341   0.382   0.384   0.398   0.431   0.436   0.448
 77 A    78 A    79 A    80 A    81 A    82 A    83 A    84 A                  
  0.466   0.467   0.474   0.492   0.505   0.530   0.533   0.543
 85 A    86 A    87 A    88 A    89 A    90 A    91 A    92 A                  
  0.544   0.619   0.666   0.693   0.696   0.705   0.712   0.731
 93 A    94 A    95 A    96 A    97 A    98 A    99 A   100 A                  
  0.733   0.748   0.748   0.756   0.757   0.773   0.779   0.786
101 A   102 A   103 A   104 A   105 A   106 A   107 A   108 A                  
  0.791   0.802   0.806   0.807   0.813   0.814   0.822   0.825
109 A   110 A   111 A   112 A   113 A   114 A   115 A   116 A                  
  0.828   0.837   0.843   0.843   0.852   0.853   0.858   0.866
117 A   118 A   119 A   120 A   121 A   122 A   123 A   124 A                  
  0.873   0.894   0.896   0.910   0.919   0.940   0.976   0.995
125 A   126 A   127 A   128 A   129 A   130 A   131 A   132 A                  
  1.000   1.058   1.065   1.081   1.091   1.101   1.107   1.108
133 A   134 A   135 A   136 A   137 A   138 A   139 A   140 A                  
  1.110   1.111   1.117   1.120   1.142   1.142   1.153   1.155
141 A   142 A   143 A   144 A   145 A   146 A   147 A   148 A                  
  1.170   1.196   1.197   1.206   1.215   1.218   1.233   1.247
149 A   150 A   151 A   152 A   153 A   154 A   155 A   156 A                  
  1.253   1.254   1.282   1.285   1.333   1.344   1.353   1.365
157 A   158 A   159 A   160 A   161 A   162 A   163 A   164 A                  
  1.422   1.444   1.450   1.468   1.474   1.477   1.486   1.487
165 A   166 A   167 A   168 A   169 A   170 A   171 A   172 A                  
  1.508   1.530   1.542   1.629   1.634   1.646   1.652   1.661
173 A   174 A   175 A   176 A   177 A   178 A   179 A   180 A                  
  1.662   1.694   1.698   1.705   1.720   1.737   1.746   1.759
181 A   182 A   183 A   184 A   185 A   186 A   187 A   188 A                  
  1.771   1.781   1.781   1.790   1.796   1.811   1.813   1.853
189 A   190 A   191 A   192 A   193 A   194 A   195 A   196 A                  
  1.857   1.996   2.043   2.062   2.101   2.105   2.125   2.152
197 A   198 A   199 A   200 A   201 A   202 A   203 A   204 A                  
  2.172   2.191   2.192   2.194   2.205   2.205   2.209   2.213
205 A   206 A   207 A   208 A   209 A   210 A   211 A   212 A                  
  2.225   2.256   2.256   2.274   2.275   2.281   2.297   2.307
213 A   214 A   215 A   216 A   217 A   218 A   219 A   220 A                  
  2.342   2.345   2.408   2.427   2.430   2.431   2.470   2.483
221 A   222 A   223 A   224 A   225 A   226 A   227 A   228 A                  
  2.487   2.502   2.533   2.550   2.557   2.595   2.610   2.635
229 A   230 A   231 A   232 A   233 A   234 A   235 A   236 A                  
  2.651   2.651   2.660   2.684   2.702   2.707   2.712   2.713
237 A   238 A   239 A   240 A   241 A   242 A   243 A   244 A                  
  2.731   2.756   2.758   2.829   2.916   2.947   2.990   2.998
245 A   246 A   247 A   248 A   249 A   250 A   251 A   252 A                  
  3.005   3.009   3.015   3.035   3.061   3.085   3.109   3.121
253 A   254 A   255 A   256 A   257 A   258 A   259 A   260 A                  
  3.154   3.170   3.188   3.201   3.222   3.225   3.294   3.314
261 A   262 A   263 A   264 A   265 A   266 A   267 A   268 A                  
  3.328   3.435   3.437   3.506   3.657   3.802   3.894   3.895
269 A   270 A   271 A   272 A   273 A   274 A   275 A   276 A                  
  4.512   4.518   4.524   4.533   4.545   4.546   4.561   4.568
277 A   278 A   279 A   280 A   281 A   282 A   283 A   284 A                  
  4.593   4.650   4.717   4.785   4.802   4.847   4.868   5.006
285 A   286 A   287 A   288 A   289 A   290 A   291 A   292 A                  
  5.184   5.329
293 A   294 A                                                                  

 Occupation and symmetry of molecular orbitals

 Point group: C1 (1 irreducible representation).

                           A     All 
 -------------------------------------
 All molecular orbitals:
  - Alpha                  294   294 
  - Beta                   294   294 
 -------------------------------------
 Alpha orbitals:
  - Frozen occupied        18    18  
  - Active occupied        42    42  
  - Active virtual         234   234 
  - Frozen virtual         0     0   
 -------------------------------------
 Beta orbitals:
  - Frozen occupied        18    18  
  - Active occupied        42    42  
  - Active virtual         234   234 
  - Frozen virtual         0     0   
 -------------------------------------

 Import integrals:   CPU 0.00 s  wall 0.00 s

 Import integrals:   CPU 161.16 s  wall 168.25 s

 MP2 amplitudes:   CPU 2.82 s  wall 2.83 s

Running a double precision version
           CCSD T amplitudes will be solved using DIIS.

           Start     Size      MaxIter   EConv     TConv     
           3         7         100       1.00e-06  1.00e-04  
 ------------------------------------------------------------------------------
           Energy (a.u.)   Ediff      Tdiff       Comment
 ------------------------------------------------------------------------------
          -690.90510571                           
     1    -690.87209202   3.30e-02   1.49e+00     Step took 10.22.
     2    -690.95628854   8.42e-02   2.21e-01     
     3    -690.95232254   3.97e-03   9.46e-02     
                                                                               5    -690.96367716   3.44e-03   2.13e-02     
     6    -690.96396965   2.92e-04   6.44e-03     
     7    -690.96389412   7.55e-05   2.90e-03     
     8    -690.96388312   1.10e-05   1.14e-03     
     9    -690.96388532   2.20e-06   3.97e-04     
    10    -690.96388298   2.34e-06   1.44e-04     
    11    -690.96388655   3.57e-06   8.74e-05     
    12    -690.96388661   6.32e-08   4.02e-05     
 ------------------------------------------------------------------------------
          -690.96388661                           CCSD T converged.

End of double precision
 SCF energy                 = -688.61587749
 MP2 energy                 = -690.90510571
 CCSD correlation energy    =   -2.34800912
 CCSD total energy          = -690.96388661

 CCSD  T1^2 = 0.0229  T2^2 = 0.9361  Leading amplitudes:

 Amplitude    Orbitals with energies
  0.0312       60 (A) A                  ->    127 (A) A                  
              -0.2156                          0.8963                     
  0.0312       60 (A) B                  ->    127 (A) B                  
              -0.2156                          0.8963                     
  0.0297       58 (A) A                  ->    122 (A) A                  
              -0.3087                          0.8531                     
  0.0297       58 (A) B                  ->    122 (A) B                  
              -0.3087                          0.8531                     

 Amplitude    Orbitals with energies
 -0.1020       60 (A) A      60 (A) B    ->    61 (A) A      61 (A) B     
              -0.2156       -0.2156            0.0247        0.0247       
  0.1020       60 (A) A      60 (A) B    ->    61 (A) B      61 (A) A     
              -0.2156       -0.2156            0.0247        0.0247       
  0.1020       60 (A) B      60 (A) A    ->    61 (A) A      61 (A) B     
              -0.2156       -0.2156            0.0247        0.0247       
 -0.1020       60 (A) B      60 (A) A    ->    61 (A) B      61 (A) A     
              -0.2156       -0.2156            0.0247        0.0247       

 Computing CCSD intermediates for later calculations in double precision
 Finished.

Running a double precision version
           CCSD Lambda amplitudes will be solved using DIIS.
           Start     Size      MaxIter   EConv     LConv     
           3         7         100       1.00e-06  1.00e-04  
 ------------------------------------------------------------------------------
            Enorm      Ldiff       Comment
 ------------------------------------------------------------------------------
     1     1.09e-01   8.18e-02     
                                                                             4     3.03e-03   1.61e-04     Switched to DIIS steps.
     5     1.24e-03   5.99e-04     
     6     4.35e-04   1.42e-04     
     7     1.59e-04   4.92e-05     
     8     6.76e-05   1.33e-05     
     9     3.18e-05   3.52e-06     
    10     1.68e-05   1.01e-06     
    11     6.95e-06   3.02e-07     
    12     3.03e-06   2.47e-07     
    13     1.41e-06   3.52e-08     
    14     6.59e-07   3.44e-08     
 ------------------------------------------------------------------------------
                                   CCSD Lambda converged.

 Computing density matrices in double precision...
 Computing density matrices... Done.
 Reference state properties
 Dipole moment (a.u.): 0.000392 (X -0.000002, Y -0.000010, Z -0.000392)
 R-squared (a.u.): 5430.004358 (XX 4642.188874, YY 705.445039, ZZ 82.370445)
 Gauge origin (a.u.): (0.000000, 0.000000, 0.000000)
 Angular momentum (a.u.) against gauge origin: 
 (X 0.000000i, Y -0.000008i, Z 0.000000i)
 Traces of the OPDMs: Tr(AA) 60.000000, Tr(BB) 60.000000
 Density matrix was written to a file for further analysis.

 CCSD calculation:   CPU 13950.52 s  wall 14644.60 s

 Total ccman2 time:   CPU 14124.62 s  wall 14825.97 s

 
 --------------------------------------------------------------
 
                    Orbital Energies (a.u.)
 --------------------------------------------------------------
 
 Alpha MOs
 -- Occupied --
-11.2439 -11.2436 -11.2436 -11.2431 -11.2426 -11.2426 -11.2400 -11.2400
-11.2398 -11.2398 -11.2365 -11.2365 -11.2361 -11.2361 -11.2352 -11.2352
-11.2346 -11.2346  -1.1887  -1.1664  -1.1250  -1.0663  -1.0623  -1.0380
 -1.0087  -0.9990  -0.9329  -0.9036  -0.8389  -0.8280  -0.8141  -0.8068
 -0.7712  -0.7102  -0.6844  -0.6815  -0.6728  -0.6261  -0.6247  -0.6231
 -0.6095  -0.5831  -0.5759  -0.5741  -0.5710  -0.5587  -0.5476  -0.5164
 -0.5156  -0.5139  -0.4854  -0.4784  -0.4685  -0.4601  -0.4101  -0.3798
 -0.3679  -0.3087  -0.3052  -0.2156
 -- Virtual --
  0.0247   0.1171   0.1250   0.1820   0.2043   0.2093   0.2433   0.2440
  0.2465   0.2724   0.2756   0.2961   0.3108   0.3140   0.3195   0.3223
  0.3328   0.3410   0.3819   0.3838   0.3982   0.4313   0.4362   0.4475
  0.4661   0.4669   0.4743   0.4919   0.5046   0.5302   0.5332   0.5430
  0.5436   0.6187   0.6663   0.6933   0.6959   0.7053   0.7116   0.7307
  0.7329   0.7476   0.7482   0.7561   0.7569   0.7732   0.7794   0.7860
  0.7912   0.8019   0.8064   0.8067   0.8133   0.8143   0.8225   0.8247
  0.8276   0.8374   0.8429   0.8430   0.8519   0.8531   0.8583   0.8660
  0.8727   0.8937   0.8963   0.9103   0.9191   0.9400   0.9760   0.9954
  1.0001   1.0578   1.0649   1.0813   1.0909   1.1010   1.1073   1.1084
  1.1102   1.1107   1.1172   1.1202   1.1420   1.1422   1.1532   1.1552
  1.1696   1.1955   1.1966   1.2056   1.2154   1.2177   1.2325   1.2469
  1.2533   1.2543   1.2815   1.2853   1.3333   1.3441   1.3532   1.3654
  1.4217   1.4437   1.4498   1.4676   1.4738   1.4774   1.4860   1.4874
  1.5085   1.5297   1.5424   1.6288   1.6339   1.6459   1.6522   1.6607
  1.6617   1.6937   1.6977   1.7046   1.7199   1.7371   1.7461   1.7587
  1.7707   1.7807   1.7810   1.7905   1.7964   1.8106   1.8127   1.8525
  1.8570   1.9958   2.0430   2.0617   2.1008   2.1049   2.1247   2.1515
  2.1724   2.1908   2.1918   2.1935   2.2046   2.2051   2.2087   2.2131
  2.2252   2.2557   2.2564   2.2736   2.2751   2.2812   2.2974   2.3074
  2.3418   2.3454   2.4085   2.4273   2.4298   2.4307   2.4701   2.4831
  2.4870   2.5022   2.5329   2.5498   2.5567   2.5948   2.6100   2.6350
  2.6510   2.6513   2.6602   2.6843   2.7019   2.7069   2.7119   2.7127
  2.7313   2.7558   2.7585   2.8295   2.9157   2.9469   2.9902   2.9976
  3.0051   3.0087   3.0150   3.0353   3.0609   3.0851   3.1092   3.1209
  3.1538   3.1701   3.1883   3.2010   3.2221   3.2254   3.2938   3.3143
  3.3280   3.4349   3.4374   3.5057   3.6565   3.8025   3.8945   3.8953
  4.5123   4.5180   4.5243   4.5329   4.5453   4.5463   4.5615   4.5679
  4.5933   4.6499   4.7170   4.7847   4.8015   4.8473   4.8679   5.0059
  5.1837   5.3286
 --------------------------------------------------------------
 
          Ground-State Mulliken Net Atomic Charges

     Atom                 Charge (a.u.)
  ----------------------------------------
      1 C                     0.061128
      2 C                    -0.225973
      3 H                     0.174927
      4 C                    -0.225972
      5 H                     0.174927
      6 C                     0.041310
      7 C                    -0.190570
      8 H                     0.174081
      9 C                    -0.178887
     10 H                     0.174546
     11 C                    -0.178887
     12 H                     0.174546
     13 C                    -0.190571
     14 H                     0.174081
     15 C                     0.041312
     16 C                     0.041310
     17 C                    -0.190571
     18 H                     0.174081
     19 C                    -0.178887
     20 H                     0.174546
     21 C                    -0.178886
     22 H                     0.174546
     23 C                    -0.190571
     24 H                     0.174081
     25 C                     0.041313
     26 C                    -0.225973
     27 H                     0.174927
     28 C                     0.061130
     29 C                    -0.225973
     30 H                     0.174927
  ----------------------------------------
  Sum of atomic charges =     0.000000

 -----------------------------------------------------------------
                    Cartesian Multipole Moments
 -----------------------------------------------------------------
    Charge (ESU x 10^10)
                -0.0000
    Dipole Moment (Debye)
         X      -0.0000      Y      -0.0000      Z      -0.0010
       Tot       0.0010
    Quadrupole Moments (Debye-Ang)
        XX     -88.2705     XY      -0.0000     YY     -90.5713
        XZ      -0.0006     YZ       0.0000     ZZ    -110.7811
    Octopole Moments (Debye-Ang^2)
       XXX      -0.0001    XXY      -0.0005    XYY       0.0000
       YYY      -0.0001    XXZ      -0.0690    XYZ      -0.2512
       YYZ       0.0016    XZZ      -0.0000    YZZ      -0.0001
       ZZZ      -0.0003
    Hexadecapole Moments (Debye-Ang^3)
      XXXX   -5771.3081   XXXY      -0.0018   XXYY   -1138.9016
      XYYY      -0.0002   YYYY    -884.7309   XXXZ      -0.0303
      XXYZ       0.0059   XYYZ       0.0002   YYYZ      -0.0004
      XXZZ   -1219.7040   XYZZ       0.0003   YYZZ    -199.8518
      XZZZ      -0.0005   YZZZ       0.0000   ZZZZ    -116.8667
 -----------------------------------------------------------------
 Total job time:  14922.95s(wall), 14219.35s(cpu) 
 Thu Jan 25 22:19:47 2024

        *************************************************************
        *                                                           *
        *  Thank you very much for using Q-Chem.  Have a nice day.  *
        *                                                           *
        *************************************************************


