                  Welcome to Q-Chem
     A Quantum Leap Into The Future Of Chemistry


 Q-Chem 6.0 (devel), Q-Chem, Inc., Pleasanton, CA (2022)

 E. Epifanovsky,  A. T. B. Gilbert,  Xintian Feng,  Joonho Lee,  Yuezhi Mao,  
 N. Mardirossian,  P. Pokhilko,  A. White,  M. Wormit,  M. P. Coons,  
 A. L. Dempwolff,  Zhengting Gan,  D. Hait,  P. R. Horn,  L. D. Jacobson,  
 I. Kaliman,  J. Kussmann,  A. W. Lange,  Ka Un Lao,  D. S. Levine,  Jie Liu,  
 S. C. McKenzie,  A. F. Morrison,  K. Nanda,  F. Plasser,  D. R. Rehn,  
 M. L. Vidal,  Zhi-Qiang You,  Ying Zhu,  B. Alam,  B. Albrecht,  
 A. Aldossary,  E. Alguire,  J. H. Andersen,  V. Athavale,  D. Barton,  
 K. Begam,  A. Behn,  N. Bellonzi,  Y. A. Bernard,  E. J. Berquist,  
 H. Burton,  A. Carreras,  K. Carter-Fenk,  Romit Chakraborty,  
 Chandrima Chakravarty,  Junhan Chen,  A. D. Chien,  K. D. Closser,  
 V. Cofer-Shabica,  L. Cunha,  S. Dasgupta,  Jia Deng,  M. de Wergifosse,  
 M. Diedenhofen,  Hainam Do,  S. Ehlert,  Po-Tung Fang,  S. Fatehi,  
 Qingguo Feng,  T. Friedhoff,  B. Ganoe,  J. Gayvert,  Qinghui Ge,  
 G. Gidofalvi,  M. Goldey,  J. Gomes,  C. Gonzalez-Espinoza,  S. Gulania,  
 A. Gunina,  J. A. Gyamfi,  M. W. D. Hanson-Heine,  P. H. P. Harbach,  
 A. W. Hauser,  M. F. Herbst,  M. Hernandez Vera,  M. Hodecker,  
 Z. C. Holden,  S. Houck,  Xunkun Huang,  Kerwin Hui,  B. C. Huynh,  
 K. Ikeda,  M. Ivanov,  Hyunjun Ji,  Zuxin Jin,  Hanjie Jiang,  B. Kaduk,  
 S. Kaehler,  R. Kang,  K. Khistyaev,  Jaehoon Kim,  Yongbin Kim,  
 P. Klunzinger,  Z. Koczor-Benda,  Joong Hoon Koh,  D. Kosenkov,  
 Saikiran Kotaru,  L. Koulias,  T. Kowalczyk,  C. M. Krauter,  K. Kue,  
 A. Kunitsa,  T. Kus,  A. Landau,  K. V. Lawler,  D. Lefrancois,  S. Lehtola,  
 Rain Li,  Shaozhi Li,  Yi-Pei Li,  Jiashu Liang,  M. Liebenthal,  
 Hung-Hsuan Lin,  You-Sheng Lin,  Fenglai Liu,  Kuan-Yu Liu,  
 M. Loipersberger,  A. Luenser,  C. Malbon,  A. Manjanath,  P. Manohar,  
 E. Mansoor,  S. F. Manzer,  Shan-Ping Mao,  A. V. Marenich,  T. Markovich,  
 S. Mason,  F. Matz,  S. A. Maurer,  P. F. McLaughlin,  M. F. S. J. Menger,  
 J.-M. Mewes,  S. A. Mewes,  P. Morgante,  Mohammad Mostafanejad,  
 J. W. Mullinax,  K. J. Oosterbaan,  G. Paran,  V. Parravicini,  
 Alexander C. Paul,  Suranjan K. Paul,  F. Pavosevic,  Zheng Pei,  S. Prager,  
 E. I. Proynov,  E. Ramos,  B. Rana,  A. E. Rask,  A. Rettig,  R. M. Richard,  
 F. Rob,  E. Rossomme,  T. Scheele,  M. Scheurer,  M. Schneider,  
 P. E. Schneider,  N. Sergueev,  S. M. Sharada,  Hengyuan Shen,  
 W. Skomorowski,  D. W. Small,  C. J. Stein,  Yingli Su,  Yu-Chuan Su,  
 E. J. Sundstrom,  Zhen Tao,  J. Thirman,  Hung-Yi Tsai,  T. Tsuchimochi,  
 N. M. Tubman,  C. Utku,  S. P. Veccham,  O. Vydrov,  J. Wenzel,  
 Jonathan Wong,  J. Witte,  A. Yamada,  Chou-Hsun Yang,  Kun Yao,  
 S. Yeganeh,  S. R. Yost,  A. Zech,  F. Zeller,  Igor Ying Zhang,  
 Xing Zhang,  Yu Zhang,  D. Zuev,  A. Aspuru-Guzik,  A. T. Bell,  
 N. A. Besley,  K. B. Bravaya,  B. R. Brooks,  D. Casanova,  Jeng-Da Chai,  
 Hsing-Ta Chen,  S. Coriani,  C. J. Cramer,  A. E. DePrince, III,  
 R. A. DiStasio Jr.,  A. Dreuw,  B. D. Dunietz,  T. R. Furlani,  
 W. A. Goddard III,  S. Grimme,  S. Hammes-Schiffer,  T. Head-Gordon,  
 W. J. Hehre,  Chao-Ping Hsu,  T.-C. Jagau,  Yousung Jung,  A. Klamt,  
 Jing Kong,  D. S. Lambrecht,  Xiangyuan Li,  WanZhen Liang,  N. J. Mayhall,  
 C. W. McCurdy,  J. B. Neaton,  T. Neudecker,  C. Ochsenfeld,  
 J. A. Parkhill,  R. Peverati,  V. A. Rassolov,  Haisheng Ren,  Yihan Shao,  
 L. V. Slipchenko,  R. P. Steele,  J. E. Subotnik,  A. J. W. Thom,  
 A. Tkatchenko,  D. G. Truhlar,  T. Van Voorhis,  Fan Wang,  
 T. A. Wesolowski,  K. B. Whaley,  H. L. Woodcock III,  P. M. Zimmerman,  
 S. Faraji,  P. M. W. Gill,  M. Head-Gordon,  J. M. Herbert,  A. I. Krylov

 Contributors to earlier versions of Q-Chem not listed above: 
 R. D. Adamson,  B. Austin,  R. Baer,  J. Baker,  G. J. O. Beran,  
 K. Brandhorst,  S. T. Brown,  E. F. C. Byrd,  Arup K. Chakraborty,  
 G. K. L. Chan,  Chun-Min Chang,  Yunqing Chen,  C.-L. Cheng,  
 Siu Hung Chien,  D. M. Chipman,  D. L. Crittenden,  H. Dachsel,  
 R. J. Doerksen,  A. D. Dutoi,  R. G. Edgar,  J. Fosso-Tande,  
 L. Fusti-Molnar,  D. Ghosh,  A. Ghysels,  A. Golubeva-Zadorozhnaya,  
 J. Gonthier,  M. S. Gordon,  S. R. Gwaltney,  G. Hawkins,  J. E. Herr,  
 A. Heyden,  S. Hirata,  E. G. Hohenstein,  G. Kedziora,  F. J. Keil,  
 C. Kelley,  Jihan Kim,  R. A. King,  R. Z. Khaliullin,  P. P. Korambath,  
 W. Kurlancheek,  A. Laurent,  A. M. Lee,  M. S. Lee,  S. V. Levchenko,  
 Ching Yeh Lin,  D. Liotard,  E. Livshits,  R. C. Lochan,  I. Lotan,  
 L. A. Martinez-Martinez,  P. E. Maslen,  N. Nair,  D. P. O'Neill,  
 D. Neuhauser,  E. Neuscamman,  C. M. Oana,  R. Olivares-Amaya,  R. Olson,  
 T. M. Perrine,  B. Peters,  P. A. Pieniazek,  A. Prociuk,  Y. M. Rhee,  
 J. Ritchie,  M. A. Rohrdanz,  E. Rosta,  N. J. Russ,  H. F. Schaefer III,  
 M. W. Schmidt,  N. E. Schultz,  S. Sharma,  N. Shenvi,  C. D. Sherrill,  
 A. C. Simmonett,  A. Sodt,  T. Stein,  D. Stuck,  K. S. Thanthiriwatte,  
 V. Vanovschi,  L. Vogt,  Tao Wang,  A. Warshel,  M. A. Watson,  
 C. F. Williams,  Q. Wu,  X. Xu,  Jun Yang,  W. Zhang,  Yan Zhao

   Please cite Q-Chem as follows:
  "Software for the frontiers of quantum chemistry:
   An overview of developments in the Q-Chem 5 package"
   J. Chem. Phys. 155, 084801 (2021)
   https://doi.org/10.1063/5.0055522 (open access)

 Q-Chem 6.0.1 for Intel X86 EM64T Linux

 Parts of Q-Chem use Armadillo 9.900.5 (Nocturnal Misbehaviour).
 http://arma.sourceforge.net/

 Q-Chem begins on Mon Jul 10 10:45:35 2023  

 Host: atlas-207
0

     Scratch files written to ./qchem436852//
 Processing $rem in /scratch/abel/SOFTWARE/qchem/config/preferences:
 Processing $rem in /dipc/acebg/.qchemrc:

 Checking the input file for inconsistencies... 	...done.

--------------------------------------------------------------
User input:
--------------------------------------------------------------
$comment
 RAS-SF CALCULATION
$end

$molecule
1 2    !charge and multiplicity
O1
H1 O1 oh
H2 O1 oh H1 hoh

oh = 0.997
hoh = 109.17
$end

$rem
!**CALCULATION TYPE***     
JOBTYPE            sp    
EXCHANGE           HF
CORRELATION        RASCI    !RASCI=Casanova; RASCI2=Zimmerman
BASIS              STO-3G

!***SCF REFERENCE***
SKIP_SCFMAN        FALSE
UNRESTRICTED       FALSE
!SCF_GUESS          core
!SCF_GUESS_MIX      FALSE
!SCF_GUESS_ALWAYS   FALSE
MAX_SCF_CYCLES     500
SCF_CONVERGENCE    8
!SCF_ALGORITHM      DIIS !DIIS,DM,DIIS_DM,GDM,DIIS_GDM,GD

SYMMETRY           TRUE !use of symmetry for calculating integrals
SYM_IGNORE         FALSE !turn off using symmetry
SYM_TOL            5 !tolerance for determining point group

!THRESH             14
SCF_FINAL_PRINT     1 !0,1,2,3

!****RAS-SF****
RAS_ROOTS          20       !number of RAS-CI roots to be computed
SET_ITER           100     !number of iterations in RASCI
RAS_ELEC           5       !number of electrons in RAS2
!RAS_ELEC_ALPHA            !spin-α electrons in RAS2 
!RAS_ELEC_BETA             !spin-β electrons in RAS2

RAS_ACT            5       !number of orbitals in RAS2 
RAS_ACT_ORB       [3,4,5,6,7]  !user-selected RAS2 orbitals
RAS_OCC            2       !number of orbitals in RAS1
N_FROZEN_CORE      0     !Number of frozen core orbitals
N_FROZEN_VIRTUAL   0      !Number of frozen virtual orbitals
RAS_NATORB         TRUE    !computation of the natural orbital occupancies
!RAS_NATORB_STATE  0      !Saves NO of i RAS computed state in .fchk ﬁle

RAS_DO_HOLE        TRUE   !presence of hole excitations in RAS-CI wave function
RAS_DO_PART        TRUE   !presence of particle excitations
RAS_AMPL_PRINT     10     !threshold (×10 2 ) for the CI amplitudes

RAS_GUESS_CS       0      !number of closed shell guess conﬁgurations
RAS_SPIN_MULT      0      !spin multiplicity: 0=any, 2n+1=defined 
RAS_SRDFT          FALSE  !short-range density functional RAS-CI
RAS_NFRAG          0     !fragments of excitation analysis in RASCI

RAS_PRINT          2      !level of information
RAS_NATORB         TRUE   !computation of the natural orbital occupancies
!RAS_NATORB_STATE  0      !Saves NO of i RAS computed state in .fchk ﬁle
RAS_FOD            TRUE

!****RAS-SOC****
CALC_SOC           TRUE   !calculate SOC for EOM-CC, RAS-CI, ADC, TDDFT/TDA and TDDFT
!RAS_SOC_2E        TRUE   !two-electron mean-ﬁeld contribution, default=true
RAS_SOC_SYM_DENS   TRUE   !averaging of α and β densities

!****MEMORY****
MEM_TOTAL          15000 !Default 2000 MB
MEM_STATIC         3000  !Default 64 MB

!**Molecular Properties and Analysis **                                                                                          
GUI                2
STATE_ANALYSIS     TRUE
MOLDEN_FORMAT      TRUE
PRINT_ORBITALS     20
$end                                           

--------------------------------------------------------------
 ----------------------------------------------------------------
             Standard Nuclear Orientation (Angstroms)
    I     Atom           X                Y                Z
 ----------------------------------------------------------------
    1      O       0.0000000000     0.0000000000     0.1155512138
    2      H      -0.8125311840    -0.0000000000    -0.4622048550
    3      H       0.8125311840    -0.0000000000    -0.4622048550
 ----------------------------------------------------------------
 Molecular Point Group                 C2v   NOp =  4
 Largest Abelian Subgroup              C2v   NOp =  4
 Nuclear Repulsion Energy =           8.81794733 hartrees
 There are        5 alpha and        4 beta electrons
 Requested basis set is STO-3G
 There are 4 shells and 7 basis functions

 Total QAlloc Memory Limit  15000 MB
 Mega-Array Size      2933 MB
 MEM_STATIC part      3000 MB


                       Distance Matrix (Angstroms)
             O (  1)   H (  2)
   H (  2)  0.997000
   H (  3)  0.997000  1.625062
 
 A cutoff of  1.0D-12 yielded     10 shell pairs
 There are        34 function pairs
 Smallest overlap matrix eigenvalue = 3.69E-01

 Scale SEOQF with 1.000000e+00/1.000000e+00/1.000000e+00

 Standard Electronic Orientation quadrupole field applied
 Nucleus-field energy     =    -0.0000000001 hartrees
 Guess from superposition of atomic densities
 Warning:  Energy on first SCF cycle will be non-variational
 SAD guess density has 10.000000 electrons

 -----------------------------------------------------------------------
  General SCF calculation program by
  Eric Jon Sundstrom, Paul Horn, Yuezhi Mao, Dmitri Zuev, Alec White,
  David Stuck, Shaama M.S., Shane Yost, Joonho Lee, David Small,
  Daniel Levine, Susi Lehtola, Hugh Burton, Evgeny Epifanovsky,
  Bang C. Huynh
 -----------------------------------------------------------------------
 Hartree-Fock
 Orthonormalizing orbitals
 A restricted open-shell SCF calculation will be
 performed using GDM
 SCF converges when RMS gradient is below 1.0e-08
 ---------------------------------------
  Cycle       Energy        RMS Gradient
 ---------------------------------------
    1     -73.3635147196      7.08e-01   Descent step
    2     -73.6056312369      4.80e-01   Descent step
    3     -73.7368520927      2.15e-01   Normal BFGS step
Fro norm of D 1.079978426559e+00
transformation scaled by 2
    4     -73.7696809427      2.77e-01   Dog-leg BFGS step
    5     -74.1964929703      7.07e-01   Descent step
    6     -74.4164926362      4.43e-01   Descent step
    7     -74.5374703879      2.36e-01   Dog-leg BFGS step
    8     -74.5869005125      4.17e-02   Normal BFGS step
    9     -74.5890447908      4.57e-03   Normal BFGS step
   10     -74.5890695629      6.95e-04   Normal BFGS step
   11     -74.5890704879      8.08e-05   Normal BFGS step
   12     -74.5890704950      1.48e-05   Normal BFGS step
   13     -74.5890704953      2.79e-06   Normal BFGS step
   14     -74.5890704953      5.31e-07   Normal BFGS step
   15     -74.5890704953      3.63e-08   Normal BFGS step
   16     -74.5890704953      1.58e-09  Convergence criterion met
The disked orbital energies are calculated using alpha and beta Focks
 ---------------------------------------
 Alpha HF Exchange    Energy =  -4.62961301407631
 Beta HF Exchange     Energy =  -3.95691975094360
 Nuclear Attraction   Energy =   0.00000000000000
 One-Electron (alpha) Energy = -61.65834213998215
 One-Electron (beta)  Energy = -54.46822598992976
 Total Coulomb        Energy =  41.30608307360890
 Final Alpha MO Eigenvalues
            1           2           3           4           5           6
    1 -20.9564320  -1.8227426  -1.1498602  -0.9724428  -1.1353991   0.0748869
            7
    1   0.1811098
 Final Beta MO Eigenvalues
            1           2           3           4           5           6
    1 -20.9279097  -1.6999411  -1.1068728  -0.9158671  -0.2917866   0.1236627
            7
    1   0.2328730
 SCF time:   CPU 0.09s  wall 2.00s 
<S^2> =          0.750000000
 SCF   energy in the final basis set =      -74.5890704953
 Total energy in the final basis set =      -74.5890704953
  
     ##========================================##
     ||                                        ||
     ||              R A S M A N 2             ||
     ||________________________________________||
     ||                                        ||
     ||  Author:                               ||
     ||                                        ||
     ||        David Casanova (2010)           ||
     ||                                        ||
     ##========================================##
  
Setting single-point xc-functionals (if necessary)

  ***************************************************
  *  RAS-CI Dimensions:                             *
  *                                                 *
  *  Active Elec.:   5 ( 3, 2)   Active Orb.:   5   *
  *  Doubly Occ. :   2           Doubly Vir.:   0   *
  *  Frozen Occ. :   0           Frozen Vir.:   0   *
  *                                                 *
  *  Total CI configurations:       400             * 
  *    Active configurations:       100             * 
  *      Hole configurations:       300             * 
  *  Particle configurations:         0             * 
  *                                                 *
  *   Requested states:       20                    *
  *  Spin multiplicity: Any multiplicity            *
  *                                                 *
  ***************************************************
-----------------------------------------
    Memory requirements of RASCI

 Each CI-vector requires      0.00 MiB 
 Max. subspace vectors            400      

 Reduced Lists                0.00 MiB 
 Excitation Lists             0.00 MiB 
 Excitation Lists Sign        0.00 MiB 
 CI-space (Max)               2.51 MiB 
 Integrals                    0.02 MiB 
 Memory required (Max)        2.51 MiB 
 Memory available          2861.02 MiB 

    Disk requirements of RASCI

 Fock matrix                  0.00 MiB 
 2-electron integrals         0.02 MiB 
 CI-space                     2.44 MiB 
 Disk required                2.46 MiB 
-----------------------------------------
  
RAS1 HF-like energy:            -62.4672595996
 Computing integrals
 Computing J and K matrices
 Computing addressing
 Making amplitude guesses
 
Direct CI diagonalization
 ---------------------------------------------------
 Iter    Rts Conv    Rts Left    Ttl Dev     Max Dev
 ---------------------------------------------------
   1         0          20      0.269853    0.018772
   2         0          20      0.152440    0.013436
   3         0          20      0.147607    0.018338
   4         0          20      0.044022    0.007158
   5         0          20      0.068758    0.025876
   6         0          20      0.036304    0.011497
   7         0          20      0.023628    0.013087
   8         0          20      0.020006    0.009437
   9         0          20      0.009221    0.005078
  10         1          19      0.003932    0.002245
  11         2          18      0.003192    0.001826
  12        11           9      0.000673    0.000367
  13        14           6      0.000411    0.000246
  14        14           6      0.000237    0.000139
  15        16           4      0.000102    0.000069
  16        16           4      0.000057    0.000034
  17        18           2      0.000020    0.000010
  18        18           2      0.000016    0.000008
  19        19           1      0.000007    0.000001
  20        20           0      0.000006    0.000001    Roots Converged
 ---------------------------------------------------
   
**************************************************
 RAS-CI total energy for state   1:    -74.705061364492
  Excitation energy (eV) =  0.000000000000
  State symmetry: B2    (C2v      )
  <S^2>      :  0.7500
  Dipole Moment:    0.0000 X     0.0000 Y     0.8940 Z
 NATURAL OCCUPATION NUMBERS (higher than 1.0E-05)
            1           2           3           4           5           6
    1   1.9999990   1.9975640   1.9845478   1.9753406   1.0000000   0.0229851
            7
    1   0.0195635
Natural Orbitals stored in FCHK

  Amplitudes : 
  
 | HOLE  | ALPHA | BETA  | PART  |    AMPLITUDE 
--------------------------------------------------
 |       | 11100 | 10100 |       |     9.8743669070681E-01
--------------------------------------------------
*** Contributions RASCI wfn    Active:  99.26
                                 Hole:   0.74
                                 Part:   0.00

      Mulliken population analysis 
 ---------------------------------------------------
   Atom    Charge (a.u.)   Spin (a.u.)  
 ---------------------------------------------------
   1  O    0.160723        1.091648 
   2  H    0.419639       -0.045824 
   3  H    0.419639       -0.045824 
 ---------------------------------------------------
   Sum:    1.000000        1.000000 
 ---------------------------------------------------
 
  
 NATURAL OCCUPATION NUMBERS (higher than 1.0E-05)
            1           2           3           4           5           6
    1   1.9999990   1.9975640   1.9845478   1.9753406   1.0000000   0.0229851
            7
    1   0.0195635
  
*** Unpaired Electrons
 Yamaguchi Nd:         1.17
 Head-Gordon Nu:       1.09
 Head-Gordon Nu_nl:    1.01
  
**************************************************
 RAS-CI total energy for state   2:    -74.620931776231
  Excitation energy (eV) =  2.289282571655
  State symmetry: A1    (C2v      )
  <S^2>      :  0.7500
  Dipole Moment:    0.0000 X    -0.0000 Y     0.7014 Z
  Trans. Moment:    0.0000 X     0.1763 Y    -0.0000 Z
  Strength   :  0.001744
  Natural transition orbitals ( 1 -> 2 ):
   e-/hole pair  1 alpha:  ampl =  0.010438 (  0.0%)   [5 : 6]
   e-/hole pair  2 alpha:  ampl =  0.001709 (  0.0%)   [4 : 7]
   e-/hole pair  1 beta :  ampl =  0.993325 ( 98.7%)   [5 : 6]
   e-/hole pair  2 beta :  ampl =  0.000377 (  0.0%)   [4 : 7]
   Sum of square amplitudes: 0.99

 NATURAL OCCUPATION NUMBERS (higher than 1.0E-05)
            1           2           3           4           5           6
    1   1.9999991   1.9988187   1.9942150   1.9759392   0.9993891   0.0198415
            7
    1   0.0117975
Natural Orbitals stored in FCHK

  Amplitudes : 
  
 | HOLE  | ALPHA | BETA  | PART  |    AMPLITUDE 
--------------------------------------------------
 |       | 11100 | 11000 |       |     9.9122485263193E-01
--------------------------------------------------
*** Contributions RASCI wfn    Active:  99.42
                                 Hole:   0.58
                                 Part:   0.00

      Mulliken population analysis 
 ---------------------------------------------------
   Atom    Charge (a.u.)   Spin (a.u.)  
 ---------------------------------------------------
   1  O    0.091595        0.947845 
   2  H    0.454202        0.026077 
   3  H    0.454202        0.026077 
 ---------------------------------------------------
   Sum:    1.000000        1.000000 
 ---------------------------------------------------
 
  
 NATURAL OCCUPATION NUMBERS (higher than 1.0E-05)
            1           2           3           4           5           6
    1   1.9999991   1.9988187   1.9942150   1.9759392   0.9993891   0.0198415
            7
    1   0.0117975
  
*** Unpaired Electrons
 Yamaguchi Nd:         1.12
 Head-Gordon Nu:       1.06
 Head-Gordon Nu_nl:    1.00
  
**************************************************
 RAS-CI total energy for state   3:    -74.410109656807
  Excitation energy (eV) =  8.026044318483
  State symmetry: B1    (C2v      )
  <S^2>      :  0.7500
  Dipole Moment:    0.0000 X     0.0000 Y     1.0834 Z
  Trans. Moment:    0.0000 X     0.0000 Y     0.0000 Z
  Strength   :  0.000000
  Natural transition orbitals ( 1 -> 3 ):
   e-/hole pair  1 alpha:  ampl =  0.057718 (  0.3%)   [5 : 6]
   e-/hole pair  2 alpha:  ampl =  0.035967 (  0.1%)   [4 : 7]
   e-/hole pair  1 beta :  ampl =  0.978722 ( 95.8%)   [5 : 6]
   e-/hole pair  2 beta :  ampl =  0.002232 (  0.0%)   [4 : 7]
   Sum of square amplitudes: 0.96

 NATURAL OCCUPATION NUMBERS (higher than 1.0E-05)
            1           2           3           4           5           6
    1   1.9999994   1.9939580   1.9908897   1.9788092   1.0028413   0.0179645
            7
    1   0.0155379
Natural Orbitals stored in FCHK

  Amplitudes : 
  
 | HOLE  | ALPHA | BETA  | PART  |    AMPLITUDE 
--------------------------------------------------
 |       | 11100 | 01100 |       |     9.7974584534928E-01
 |       | 11010 | 01100 |       |     1.0779760121233E-01
--------------------------------------------------
*** Contributions RASCI wfn    Active:  99.17
                                 Hole:   0.83
                                 Part:   0.00

      Mulliken population analysis 
 ---------------------------------------------------
   Atom    Charge (a.u.)   Spin (a.u.)  
 ---------------------------------------------------
   1  O   -0.039243        0.543118 
   2  H    0.519622        0.228441 
   3  H    0.519622        0.228441 
 ---------------------------------------------------
   Sum:    1.000000        1.000000 
 ---------------------------------------------------
 
  
 NATURAL OCCUPATION NUMBERS (higher than 1.0E-05)
            1           2           3           4           5           6
    1   1.9999994   1.9939580   1.9908897   1.9788092   1.0028413   0.0179645
            7
    1   0.0155379
  
*** Unpaired Electrons
 Yamaguchi Nd:         1.14
 Head-Gordon Nu:       1.07
 Head-Gordon Nu_nl:    1.00
  
**************************************************
 RAS-CI total energy for state   4:    -74.199556977926
  Excitation energy (eV) = 13.755474215134
  State symmetry: B2    (C2v      )
  <S^2>      :  3.7500
  Dipole Moment:    0.0000 X     0.0000 Y     0.0190 Z
  Trans. Moment:   -0.0000 X     0.0000 Y    -0.0000 Z
  Strength   :  0.000000
  Natural transition orbitals ( 1 -> 4 ):
   e-/hole pair  1 alpha:  ampl =  0.555934 ( 30.9%)   [5 : 6]
   e-/hole pair  2 alpha:  ampl =  0.109235 (  1.2%)   [4 : 7]
   e-/hole pair  1 beta :  ampl =  0.555934 ( 30.9%)   [5 : 6]
   e-/hole pair  2 beta :  ampl =  0.109235 (  1.2%)   [4 : 7]
   Sum of square amplitudes: 0.65

 NATURAL OCCUPATION NUMBERS (higher than 1.0E-05)
            1           2           3           4           5           6
    1   1.9999991   1.9964268   1.9436237   1.0380455   1.0000000   0.9644216
            7
    1   0.0574833
Natural Orbitals stored in FCHK

  Amplitudes : 
  
 | HOLE  | ALPHA | BETA  | PART  |    AMPLITUDE 
--------------------------------------------------
 |       | 11100 | 10010 |       |    -5.5470572489842E-01
 |       | 11100 | 00101 |       |    -1.0571727387461E-01
 |       | 11010 | 10100 |       |     5.5470572489844E-01
 |       | 10110 | 11000 |       |    -5.5470572489840E-01
 |       | 10101 | 01100 |       |     1.0571727387461E-01
 |       | 01101 | 10100 |       |    -1.0571727387461E-01
--------------------------------------------------
*** Contributions RASCI wfn    Active:  98.44
                                 Hole:   1.56
                                 Part:   0.00

      Mulliken population analysis 
 ---------------------------------------------------
   Atom    Charge (a.u.)   Spin (a.u.)  
 ---------------------------------------------------
   1  O    0.613978        0.693652 
   2  H    0.193011        0.153174 
   3  H    0.193011        0.153174 
 ---------------------------------------------------
   Sum:    1.000000        1.000000 
 ---------------------------------------------------
 
  
 NATURAL OCCUPATION NUMBERS (higher than 1.0E-05)
            1           2           3           4           5           6
    1   1.9999991   1.9964268   1.9436237   1.0380455   1.0000000   0.9644216
            7
    1   0.0574833
  
*** Unpaired Electrons
 Yamaguchi Nd:         3.23
 Head-Gordon Nu:       3.04
 Head-Gordon Nu_nl:    3.02
  
**************************************************
 RAS-CI total energy for state   5:    -74.125333470556
  Excitation energy (eV) = 15.775198611040
  State symmetry: A2    (C2v      )
  <S^2>      :  3.7500
  Dipole Moment:   -0.0000 X     0.0000 Y     0.1502 Z
  Trans. Moment:    0.0000 X    -0.0000 Y    -0.0000 Z
  Strength   :  0.000000
  Natural transition orbitals ( 1 -> 5 ):
   e-/hole pair  1 alpha:  ampl =  0.499029 ( 24.9%)   [5 : 6]
   e-/hole pair  2 alpha:  ampl =  0.274597 (  7.5%)   [4 : 7]
   e-/hole pair  1 beta :  ampl =  0.499029 ( 24.9%)   [5 : 6]
   e-/hole pair  2 beta :  ampl =  0.274597 (  7.5%)   [4 : 7]
   Sum of square amplitudes: 0.65

 NATURAL OCCUPATION NUMBERS (higher than 1.0E-05)
            1           2           3           4           5           6
    1   1.9999984   1.9952753   1.7551631   1.2249946   1.0000000   0.7711271
            7
    1   0.2534415
Natural Orbitals stored in FCHK

  Amplitudes : 
  
 | HOLE  | ALPHA | BETA  | PART  |    AMPLITUDE 
--------------------------------------------------
 |       | 11100 | 10001 |       |     4.9881500398582E-01
 |       | 11100 | 00110 |       |     2.7363875857499E-01
 |       | 11001 | 10100 |       |    -4.9881500398580E-01
 |       | 10110 | 01100 |       |    -2.7363875857498E-01
 |       | 10101 | 11000 |       |     4.9881500398581E-01
 |       | 01110 | 10100 |       |     2.7363875857500E-01
--------------------------------------------------
*** Contributions RASCI wfn    Active:  98.62
                                 Hole:   1.38
                                 Part:   0.00

      Mulliken population analysis 
 ---------------------------------------------------
   Atom    Charge (a.u.)   Spin (a.u.)  
 ---------------------------------------------------
   1  O    0.561172        0.736622 
   2  H    0.219414        0.131689 
   3  H    0.219414        0.131689 
 ---------------------------------------------------
   Sum:    1.000000        1.000000 
 ---------------------------------------------------
 
  
 NATURAL OCCUPATION NUMBERS (higher than 1.0E-05)
            1           2           3           4           5           6
    1   1.9999984   1.9952753   1.7551631   1.2249946   1.0000000   0.7711271
            7
    1   0.2534415
  
*** Unpaired Electrons
 Yamaguchi Nd:         3.78
 Head-Gordon Nu:       3.05
 Head-Gordon Nu_nl:    3.18
  
**************************************************
 RAS-CI total energy for state   6:    -74.120785980439
  Excitation energy (eV) = 15.898942112986
  State symmetry: A1    (C2v      )
  <S^2>      :  0.7500
  Dipole Moment:    0.0000 X     0.0000 Y     0.1502 Z
  Trans. Moment:   -0.0000 X     0.1001 Y     0.0000 Z
  Strength   :  0.003899
  Natural transition orbitals ( 1 -> 6 ):
   e-/hole pair  1 alpha:  ampl =  0.916605 ( 84.0%)   [5 : 6]
   e-/hole pair  2 alpha:  ampl =  0.009505 (  0.0%)   [4 : 7]
   e-/hole pair  1 beta :  ampl =  0.195812 (  3.8%)   [5 : 6]
   e-/hole pair  2 beta :  ampl =  0.040005 (  0.2%)   [4 : 7]
   Sum of square amplitudes: 0.88

 NATURAL OCCUPATION NUMBERS (higher than 1.0E-05)
            1           2           3           4           5           6
    1   1.9999994   1.9629154   1.9584124   1.8755482   0.9562769   0.2088722
            7
    1   0.0379755
Natural Orbitals stored in FCHK

  Amplitudes : 
  
 | HOLE  | ALPHA | BETA  | PART  |    AMPLITUDE 
--------------------------------------------------
 |       | 11010 | 11000 |       |    -2.3246992900272E-01
 |       | 10110 | 10100 |       |     9.2413520225002E-01
 |       | 10110 | 00101 |       |    -1.3016597692986E-01
 |   2   | 11100 | 11100 |       |    -1.9496925791747E-01
--------------------------------------------------
*** Contributions RASCI wfn    Active:  95.54
                                 Hole:   4.46
                                 Part:   0.00

      Mulliken population analysis 
 ---------------------------------------------------
   Atom    Charge (a.u.)   Spin (a.u.)  
 ---------------------------------------------------
   1  O    0.616430        0.100005 
   2  H    0.191785        0.449997 
   3  H    0.191785        0.449997 
 ---------------------------------------------------
   Sum:    1.000000        1.000000 
 ---------------------------------------------------
 
  
 NATURAL OCCUPATION NUMBERS (higher than 1.0E-05)
            1           2           3           4           5           6
    1   1.9999994   1.9629154   1.9584124   1.8755482   0.9562769   0.2088722
            7
    1   0.0379755
  
*** Unpaired Electrons
 Yamaguchi Nd:         1.83
 Head-Gordon Nu:       1.41
 Head-Gordon Nu_nl:    1.21
  
**************************************************
 RAS-CI total energy for state   7:    -74.114452681043
  Excitation energy (eV) = 16.071279957816
  State symmetry: B2    (C2v      )
  <S^2>      :  0.7500
  Dipole Moment:    0.0000 X     0.0000 Y    -0.0279 Z
  Trans. Moment:    0.0000 X     0.0000 Y    -0.2352 Z
  Strength   :  0.021789
  Natural transition orbitals ( 1 -> 7 ):
   e-/hole pair  1 alpha:  ampl =  0.180345 (  3.3%)   [5 : 6]
   e-/hole pair  2 alpha:  ampl =  0.120465 (  1.5%)   [4 : 7]
   e-/hole pair  1 beta :  ampl =  0.750637 ( 56.3%)   [5 : 6]
   e-/hole pair  2 beta :  ampl =  0.028395 (  0.1%)   [4 : 7]
   Sum of square amplitudes: 0.61

 NATURAL OCCUPATION NUMBERS (higher than 1.0E-05)
            1           2           3           4           5           6
    1   1.9999994   1.9905594   1.9428166   1.0895659   1.0000000   0.9161660
            7
    1   0.0608928
Natural Orbitals stored in FCHK

  Amplitudes : 
  
 | HOLE  | ALPHA | BETA  | PART  |    AMPLITUDE 
--------------------------------------------------
 |       | 11100 | 10010 |       |     7.4526524738219E-01
 |       | 11010 | 10100 |       |     1.7181734149042E-01
 |       | 10110 | 11000 |       |    -5.7344790589178E-01
 |       | 01101 | 10100 |       |     1.1882677921035E-01
 |       | 01101 | 10010 |       |     1.0946655397499E-01
--------------------------------------------------
*** Contributions RASCI wfn    Active:  98.15
                                 Hole:   1.85
                                 Part:   0.00

      Mulliken population analysis 
 ---------------------------------------------------
   Atom    Charge (a.u.)   Spin (a.u.)  
 ---------------------------------------------------
   1  O    0.542898        1.127841 
   2  H    0.228551       -0.063921 
   3  H    0.228551       -0.063921 
 ---------------------------------------------------
   Sum:    1.000000        1.000000 
 ---------------------------------------------------
 
  
 NATURAL OCCUPATION NUMBERS (higher than 1.0E-05)
            1           2           3           4           5           6
    1   1.9999994   1.9905594   1.9428166   1.0895659   1.0000000   0.9161660
            7
    1   0.0608928
  
*** Unpaired Electrons
 Yamaguchi Nd:         3.23
 Head-Gordon Nu:       2.95
 Head-Gordon Nu_nl:    3.00
  
**************************************************
 RAS-CI total energy for state   8:    -74.069671591512
  Excitation energy (eV) = 17.289835402136
  State symmetry: B2    (C2v      )
  <S^2>      :  0.7500
  Dipole Moment:    0.0000 X     0.0000 Y     0.0578 Z
  Trans. Moment:   -0.0000 X    -0.0000 Y    -0.2343 Z
  Strength   :  0.023262
  Natural transition orbitals ( 1 -> 8 ):
   e-/hole pair  1 alpha:  ampl =  0.743419 ( 55.3%)   [5 : 6]
   e-/hole pair  2 alpha:  ampl =  0.022404 (  0.1%)   [4 : 7]
   e-/hole pair  1 beta :  ampl =  0.238941 (  5.7%)   [5 : 6]
   e-/hole pair  2 beta :  ampl =  0.181719 (  3.3%)   [4 : 7]
   Sum of square amplitudes: 0.65

 NATURAL OCCUPATION NUMBERS (higher than 1.0E-05)
            1           2           3           4           5           6
    1   1.9999993   1.9821662   1.9179275   1.0818504   1.0000000   0.9298349
            7
    1   0.0882217
Natural Orbitals stored in FCHK

  Amplitudes : 
  
 | HOLE  | ALPHA | BETA  | PART  |    AMPLITUDE 
--------------------------------------------------
 |       | 11100 | 10010 |       |     2.3272741754312E-01
 |       | 11100 | 00101 |       |    -1.8232006962977E-01
 |       | 11010 | 10100 |       |     7.4834876937226E-01
 |       | 10110 | 11000 |       |     5.1562135182919E-01
 |       | 10101 | 01100 |       |    -1.5859028546693E-01
 |   2   | 10110 | 11100 |       |     1.2219422824367E-01
--------------------------------------------------
*** Contributions RASCI wfn    Active:  97.27
                                 Hole:   2.73
                                 Part:   0.00

      Mulliken population analysis 
 ---------------------------------------------------
   Atom    Charge (a.u.)   Spin (a.u.)  
 ---------------------------------------------------
   1  O    0.576688        0.283911 
   2  H    0.211656        0.358044 
   3  H    0.211656        0.358044 
 ---------------------------------------------------
   Sum:    1.000000        1.000000 
 ---------------------------------------------------
 
  
 NATURAL OCCUPATION NUMBERS (higher than 1.0E-05)
            1           2           3           4           5           6
    1   1.9999993   1.9821662   1.9179275   1.0818504   1.0000000   0.9298349
            7
    1   0.0882217
  
*** Unpaired Electrons
 Yamaguchi Nd:         3.35
 Head-Gordon Nu:       3.04
 Head-Gordon Nu_nl:    3.03
  
**************************************************
 RAS-CI total energy for state   9:    -74.047827327440
  Excitation energy (eV) = 17.884248070292
  State symmetry: A2    (C2v      )
  <S^2>      :  0.7500
  Dipole Moment:   -0.0000 X     0.0000 Y     0.1859 Z
  Trans. Moment:    0.3468 X     0.0000 Y    -0.0000 Z
  Strength   :  0.052685
  Natural transition orbitals ( 1 -> 9 ):
   e-/hole pair  1 alpha:  ampl =  0.202861 (  4.1%)   [5 : 6]
   e-/hole pair  2 alpha:  ampl =  0.098101 (  1.0%)   [4 : 7]
   e-/hole pair  1 beta :  ampl =  0.698654 ( 48.8%)   [5 : 6]
   e-/hole pair  2 beta :  ampl =  0.044483 (  0.2%)   [4 : 7]
   Sum of square amplitudes: 0.54

 NATURAL OCCUPATION NUMBERS (higher than 1.0E-05)
            1           2           3           4           5           6
    1   1.9999994   1.9904283   1.8811186   1.0991963   1.0000000   0.8934095
            7
    1   0.1358480
Natural Orbitals stored in FCHK

  Amplitudes : 
  
 | HOLE  | ALPHA | BETA  | PART  |    AMPLITUDE 
--------------------------------------------------
 |       | 11100 | 10001 |       |     6.9583302408992E-01
 |       | 10110 | 01100 |       |     2.4516133313415E-01
 |       | 10101 | 11000 |       |    -6.0023667732639E-01
 |       | 01110 | 10100 |       |     2.0313410327271E-01
--------------------------------------------------
*** Contributions RASCI wfn    Active:  98.54
                                 Hole:   1.46
                                 Part:   0.00

      Mulliken population analysis 
 ---------------------------------------------------
   Atom    Charge (a.u.)   Spin (a.u.)  
 ---------------------------------------------------
   1  O    0.498014        0.978271 
   2  H    0.250993        0.010864 
   3  H    0.250993        0.010864 
 ---------------------------------------------------
   Sum:    1.000000        1.000000 
 ---------------------------------------------------
 
  
 NATURAL OCCUPATION NUMBERS (higher than 1.0E-05)
            1           2           3           4           5           6
    1   1.9999994   1.9904283   1.8811186   1.0991963   1.0000000   0.8934095
            7
    1   0.1358480
  
*** Unpaired Electrons
 Yamaguchi Nd:         3.47
 Head-Gordon Nu:       3.06
 Head-Gordon Nu_nl:    3.07
  
**************************************************
 RAS-CI total energy for state  10:    -74.043455873331
  Excitation energy (eV) = 18.003201388748
  State symmetry: A2    (C2v      )
  <S^2>      :  3.7500
  Dipole Moment:    0.0000 X     0.0000 Y     0.2437 Z
  Trans. Moment:   -0.0000 X     0.0000 Y     0.0000 Z
  Strength   :  0.000000
  Natural transition orbitals ( 1 -> 10 ):
   e-/hole pair  1 alpha:  ampl =  0.490504 ( 24.1%)   [5 : 6]
   e-/hole pair  2 alpha:  ampl =  0.278960 (  7.8%)   [4 : 7]
   e-/hole pair  1 beta :  ampl =  0.490504 ( 24.1%)   [5 : 6]
   e-/hole pair  2 beta :  ampl =  0.278960 (  7.8%)   [4 : 7]
   Sum of square amplitudes: 0.64

 NATURAL OCCUPATION NUMBERS (higher than 1.0E-05)
            1           2           3           4           5           6
    1   1.9999994   1.9959261   1.7480878   1.2463896   1.0000000   0.7512277
            7
    1   0.2583694
Natural Orbitals stored in FCHK

  Amplitudes : 
  
 | HOLE  | ALPHA | BETA  | PART  |    AMPLITUDE 
--------------------------------------------------
 |       | 11100 | 10001 |       |    -2.7348828969818E-01
 |       | 11100 | 00110 |       |     4.9652090639539E-01
 |       | 11001 | 10100 |       |     2.7348828969772E-01
 |       | 10110 | 01100 |       |    -4.9652090639537E-01
 |       | 10101 | 11000 |       |    -2.7348828969760E-01
 |       | 01110 | 10100 |       |     4.9652090639524E-01
--------------------------------------------------
*** Contributions RASCI wfn    Active:  97.94
                                 Hole:   2.06
                                 Part:   0.00

      Mulliken population analysis 
 ---------------------------------------------------
   Atom    Charge (a.u.)   Spin (a.u.)  
 ---------------------------------------------------
   1  O    0.476415        0.641088 
   2  H    0.261793        0.179456 
   3  H    0.261793        0.179456 
 ---------------------------------------------------
   Sum:    1.000000        1.000000 
 ---------------------------------------------------
 
  
 NATURAL OCCUPATION NUMBERS (higher than 1.0E-05)
            1           2           3           4           5           6
    1   1.9999994   1.9959261   1.7480878   1.2463896   1.0000000   0.7512277
            7
    1   0.2583694
  
*** Unpaired Electrons
 Yamaguchi Nd:         3.78
 Head-Gordon Nu:       3.02
 Head-Gordon Nu_nl:    3.16
  
**************************************************
 RAS-CI total energy for state  11:    -74.020530934600
  Excitation energy (eV) = 18.627020710557
  State symmetry: B1    (C2v      )
  <S^2>      :  0.7500
  Dipole Moment:   -0.0000 X     0.0000 Y     0.2814 Z
  Trans. Moment:    0.0000 X    -0.0000 Y     0.0000 Z
  Strength   :  0.000000
  Natural transition orbitals ( 1 -> 11 ):
   e-/hole pair  1 alpha:  ampl =  0.933392 ( 87.1%)   [5 : 6]
   e-/hole pair  2 alpha:  ampl =  0.002558 (  0.0%)   [4 : 7]
   e-/hole pair  1 beta :  ampl =  0.061577 (  0.4%)   [5 : 6]
   e-/hole pair  2 beta :  ampl =  0.034734 (  0.1%)   [4 : 7]
   Sum of square amplitudes: 0.88

 NATURAL OCCUPATION NUMBERS (higher than 1.0E-05)
            1           2           3           4           5           6
    1   1.9999996   1.9958490   1.9768577   1.8494584   0.9885255   0.1479238
            7
    1   0.0413861
Natural Orbitals stored in FCHK

  Amplitudes : 
  
 | HOLE  | ALPHA | BETA  | PART  |    AMPLITUDE 
--------------------------------------------------
 |       | 11001 | 11000 |       |    -2.5777451889482E-01
 |       | 10101 | 10100 |       |     9.4115871937633E-01
--------------------------------------------------
*** Contributions RASCI wfn    Active:  99.09
                                 Hole:   0.91
                                 Part:   0.00

      Mulliken population analysis 
 ---------------------------------------------------
   Atom    Charge (a.u.)   Spin (a.u.)  
 ---------------------------------------------------
   1  O    0.559718        0.190992 
   2  H    0.220141        0.404504 
   3  H    0.220141        0.404504 
 ---------------------------------------------------
   Sum:    1.000000        1.000000 
 ---------------------------------------------------
 
  
 NATURAL OCCUPATION NUMBERS (higher than 1.0E-05)
            1           2           3           4           5           6
    1   1.9999996   1.9958490   1.9768577   1.8494584   0.9885255   0.1479238
            7
    1   0.0413861
  
*** Unpaired Electrons
 Yamaguchi Nd:         1.69
 Head-Gordon Nu:       1.36
 Head-Gordon Nu_nl:    1.16
  
**************************************************
 RAS-CI total energy for state  12:    -73.997980169625
  Excitation energy (eV) = 19.240658246441
  State symmetry: A2    (C2v      )
  <S^2>      :  0.7500
  Dipole Moment:   -0.0000 X     0.0000 Y     0.2438 Z
  Trans. Moment:    0.1745 X     0.0000 Y     0.0000 Z
  Strength   :  0.014358
  Natural transition orbitals ( 1 -> 12 ):
   e-/hole pair  1 alpha:  ampl =  0.597473 ( 35.7%)   [5 : 6]
   e-/hole pair  2 alpha:  ampl =  0.021967 (  0.0%)   [4 : 7]
   e-/hole pair  1 beta :  ampl =  0.445803 ( 19.9%)   [5 : 6]
   e-/hole pair  2 beta :  ampl =  0.328301 ( 10.8%)   [4 : 7]
   Sum of square amplitudes: 0.67

 NATURAL OCCUPATION NUMBERS (higher than 1.0E-05)
            1           2           3           4           5           6
    1   1.9999990   1.9879409   1.5640003   1.4180527   1.0000000   0.5862469
            7
    1   0.4437602
Natural Orbitals stored in FCHK

  Amplitudes : 
  
 | HOLE  | ALPHA | BETA  | PART  |    AMPLITUDE 
--------------------------------------------------
 |       | 11100 | 10001 |       |     3.2977519905051E-01
 |       | 11100 | 00110 |       |    -4.4507034377866E-01
 |       | 11001 | 10100 |       |     6.0063663819031E-01
 |       | 10110 | 01100 |       |    -4.5841785236763E-01
 |       | 10101 | 11000 |       |     2.7086143913968E-01
--------------------------------------------------
*** Contributions RASCI wfn    Active:  97.72
                                 Hole:   2.28
                                 Part:   0.00

      Mulliken population analysis 
 ---------------------------------------------------
   Atom    Charge (a.u.)   Spin (a.u.)  
 ---------------------------------------------------
   1  O    0.478920        0.659387 
   2  H    0.260540        0.170306 
   3  H    0.260540        0.170306 
 ---------------------------------------------------
   Sum:    1.000000        1.000000 
 ---------------------------------------------------
 
  
 NATURAL OCCUPATION NUMBERS (higher than 1.0E-05)
            1           2           3           4           5           6
    1   1.9999990   1.9879409   1.5640003   1.4180527   1.0000000   0.5862469
            7
    1   0.4437602
  
*** Unpaired Electrons
 Yamaguchi Nd:         4.05
 Head-Gordon Nu:       3.06
 Head-Gordon Nu_nl:    3.31
  
**************************************************
 RAS-CI total energy for state  13:    -73.989458709769
  Excitation energy (eV) = 19.472538966841
  State symmetry: B1    (C2v      )
  <S^2>      :  3.7500
  Dipole Moment:    0.0000 X    -0.0000 Y     0.1919 Z
  Trans. Moment:    0.0000 X     0.0000 Y     0.0000 Z
  Strength   :  0.000000
  Natural transition orbitals ( 1 -> 13 ):
   e-/hole pair  1 alpha:  ampl =  0.007876 (  0.0%)   [5 : 6]
   e-/hole pair  2 alpha:  ampl =  0.000217 (  0.0%)   [4 : 7]
   e-/hole pair  1 beta :  ampl =  0.007876 (  0.0%)   [5 : 6]
   e-/hole pair  2 beta :  ampl =  0.000217 (  0.0%)   [4 : 7]
   Sum of square amplitudes: 0.00

 NATURAL OCCUPATION NUMBERS (higher than 1.0E-05)
            1           2           3           4           5           6
    1   1.9999996   1.9982886   1.9736177   1.0215161   1.0007612   0.9782177
            7
    1   0.0275992
Natural Orbitals stored in FCHK

  Amplitudes : 
  
 | HOLE  | ALPHA | BETA  | PART  |    AMPLITUDE 
--------------------------------------------------
 |       | 11100 | 01010 |       |     5.6707319774844E-01
 |       | 11010 | 01100 |       |    -5.6707319571105E-01
 |       | 01110 | 11000 |       |     5.6707327206395E-01
--------------------------------------------------
*** Contributions RASCI wfn    Active:  96.65
                                 Hole:   3.35
                                 Part:   0.00

      Mulliken population analysis 
 ---------------------------------------------------
   Atom    Charge (a.u.)   Spin (a.u.)  
 ---------------------------------------------------
   1  O    0.414176        0.598965 
   2  H    0.292912        0.200517 
   3  H    0.292912        0.200517 
 ---------------------------------------------------
   Sum:    1.000000        1.000000 
 ---------------------------------------------------
 
  
 NATURAL OCCUPATION NUMBERS (higher than 1.0E-05)
            1           2           3           4           5           6
    1   1.9999996   1.9982886   1.9736177   1.0215161   1.0007612   0.9782177
            7
    1   0.0275992
  
*** Unpaired Electrons
 Yamaguchi Nd:         3.11
 Head-Gordon Nu:       3.01
 Head-Gordon Nu_nl:    3.00
  
**************************************************
 RAS-CI total energy for state  14:    -73.981496520795
  Excitation energy (eV) = 19.689201152264
  State symmetry: B2    (C2v      )
  <S^2>      :  3.7500
  Dipole Moment:   -0.0000 X     0.0000 Y     0.4693 Z
  Trans. Moment:   -0.0000 X    -0.0000 Y    -0.0000 Z
  Strength   :  0.000000
  Natural transition orbitals ( 1 -> 14 ):
   e-/hole pair  1 alpha:  ampl =  0.547535 ( 30.0%)   [5 : 6]
   e-/hole pair  2 alpha:  ampl =  0.146529 (  2.1%)   [4 : 7]
   e-/hole pair  1 beta :  ampl =  0.547535 ( 30.0%)   [5 : 6]
   e-/hole pair  2 beta :  ampl =  0.146529 (  2.1%)   [4 : 7]
   Sum of square amplitudes: 0.65

 NATURAL OCCUPATION NUMBERS (higher than 1.0E-05)
            1           2           3           4           5           6
    1   1.9999990   1.9866549   1.9243885   1.0698831   1.0000000   0.9301818
            7
    1   0.0888927
Natural Orbitals stored in FCHK

  Amplitudes : 
  
 | HOLE  | ALPHA | BETA  | PART  |    AMPLITUDE 
--------------------------------------------------
 |       | 11100 | 10010 |       |     1.1045630898973E-01
 |       | 11100 | 00101 |       |    -5.5148156099291E-01
 |       | 11010 | 10100 |       |    -1.1045630898972E-01
 |       | 10110 | 11000 |       |     1.1045630898974E-01
 |       | 10101 | 01100 |       |     5.5148156099298E-01
 |       | 01101 | 10100 |       |    -5.5148156099292E-01
--------------------------------------------------
*** Contributions RASCI wfn    Active:  96.37
                                 Hole:   3.63
                                 Part:   0.00

      Mulliken population analysis 
 ---------------------------------------------------
   Atom    Charge (a.u.)   Spin (a.u.)  
 ---------------------------------------------------
   1  O    0.403753        0.651541 
   2  H    0.298124        0.174230 
   3  H    0.298124        0.174230 
 ---------------------------------------------------
   Sum:    1.000000        1.000000 
 ---------------------------------------------------
 
  
 NATURAL OCCUPATION NUMBERS (higher than 1.0E-05)
            1           2           3           4           5           6
    1   1.9999990   1.9866549   1.9243885   1.0698831   1.0000000   0.9301818
            7
    1   0.0888927
  
*** Unpaired Electrons
 Yamaguchi Nd:         3.33
 Head-Gordon Nu:       3.04
 Head-Gordon Nu_nl:    3.03
  
**************************************************
 RAS-CI total energy for state  15:    -73.964146958664
  Excitation energy (eV) = 20.161306757808
  State symmetry: A1    (C2v      )
  <S^2>      :  0.7500
  Dipole Moment:    0.0000 X    -0.0000 Y     0.1154 Z
  Trans. Moment:    0.0000 X    -0.0276 Y    -0.0000 Z
  Strength   :  0.000378
  Natural transition orbitals ( 1 -> 15 ):
   e-/hole pair  1 alpha:  ampl =  0.222393 (  4.9%)   [5 : 6]
   e-/hole pair  2 alpha:  ampl =  0.026265 (  0.1%)   [4 : 7]
   e-/hole pair  1 beta :  ampl =  0.051580 (  0.3%)   [5 : 6]
   e-/hole pair  2 beta :  ampl =  0.009694 (  0.0%)   [4 : 7]
   Sum of square amplitudes: 0.05

 NATURAL OCCUPATION NUMBERS (higher than 1.0E-05)
            1           2           3           4           5           6
    1   1.9999993   1.9785344   1.8930699   1.8027003   0.8950282   0.3014006
            7
    1   0.1292674
Natural Orbitals stored in FCHK

  Amplitudes : 
  
 | HOLE  | ALPHA | BETA  | PART  |    AMPLITUDE 
--------------------------------------------------
 |       | 11100 | 01001 |       |    -2.2701087185826E-01
 |       | 11010 | 11000 |       |     8.4724380645460E-01
 |       | 11001 | 01100 |       |    -2.3735816926538E-01
 |       | 10110 | 10100 |       |     2.2416402718584E-01
 |       | 01110 | 01100 |       |    -1.8477379277566E-01
 |   2   | 11110 | 11000 |       |     1.1940236848196E-01
 |   2   | 11010 | 11100 |       |     2.0757697177738E-01
--------------------------------------------------
*** Contributions RASCI wfn    Active:  92.84
                                 Hole:   7.16
                                 Part:   0.00

      Mulliken population analysis 
 ---------------------------------------------------
   Atom    Charge (a.u.)   Spin (a.u.)  
 ---------------------------------------------------
   1  O    0.514710        0.185290 
   2  H    0.242645        0.407355 
   3  H    0.242645        0.407355 
 ---------------------------------------------------
   Sum:    1.000000        1.000000 
 ---------------------------------------------------
 
  
 NATURAL OCCUPATION NUMBERS (higher than 1.0E-05)
            1           2           3           4           5           6
    1   1.9999993   1.9785344   1.8930699   1.8027003   0.8950282   0.3014006
            7
    1   0.1292674
  
*** Unpaired Electrons
 Yamaguchi Nd:         2.34
 Head-Gordon Nu:       1.65
 Head-Gordon Nu_nl:    1.47
  
**************************************************
 RAS-CI total energy for state  16:    -73.941167706285
  Excitation energy (eV) = 20.786604029181
  State symmetry: A2    (C2v      )
  <S^2>      :  0.7500
  Dipole Moment:    0.0000 X     0.0000 Y     0.2396 Z
  Trans. Moment:    0.1497 X     0.0000 Y    -0.0000 Z
  Strength   :  0.011413
  Natural transition orbitals ( 1 -> 16 ):
   e-/hole pair  1 alpha:  ampl =  0.435345 ( 19.0%)   [5 : 6]
   e-/hole pair  2 alpha:  ampl =  0.376853 ( 14.2%)   [4 : 7]
   e-/hole pair  1 beta :  ampl =  0.232934 (  5.4%)   [5 : 6]
   e-/hole pair  2 beta :  ampl =  0.049476 (  0.2%)   [4 : 7]
   Sum of square amplitudes: 0.39

 NATURAL OCCUPATION NUMBERS (higher than 1.0E-05)
            1           2           3           4           5           6
    1   1.9999993   1.9884673   1.5831412   1.4056453   1.0000000   0.5963491
            7
    1   0.4263978
Natural Orbitals stored in FCHK

  Amplitudes : 
  
 | HOLE  | ALPHA | BETA  | PART  |    AMPLITUDE 
--------------------------------------------------
 |       | 11100 | 00110 |       |     2.3001212744158E-01
 |       | 11001 | 10100 |       |     4.3902590023421E-01
 |       | 10110 | 01100 |       |     6.0994902159091E-01
 |       | 10101 | 11000 |       |     4.4840780158941E-01
 |       | 01110 | 10100 |       |     3.7993689414930E-01
--------------------------------------------------
*** Contributions RASCI wfn    Active:  98.48
                                 Hole:   1.52
                                 Part:   0.00

      Mulliken population analysis 
 ---------------------------------------------------
   Atom    Charge (a.u.)   Spin (a.u.)  
 ---------------------------------------------------
   1  O    0.473670        0.134338 
   2  H    0.263165        0.432831 
   3  H    0.263165        0.432831 
 ---------------------------------------------------
   Sum:    1.000000        1.000000 
 ---------------------------------------------------
 
  
 NATURAL OCCUPATION NUMBERS (higher than 1.0E-05)
            1           2           3           4           5           6
    1   1.9999993   1.9884673   1.5831412   1.4056453   1.0000000   0.5963491
            7
    1   0.4263978
  
*** Unpaired Electrons
 Yamaguchi Nd:         4.03
 Head-Gordon Nu:       3.05
 Head-Gordon Nu_nl:    3.28
  
**************************************************
 RAS-CI total energy for state  17:    -73.908238768015
  Excitation energy (eV) = 21.682646028702
  State symmetry: B1    (C2v      )
  <S^2>      :  0.7500
  Dipole Moment:   -0.0000 X    -0.0000 Y     0.1867 Z
  Trans. Moment:   -0.0000 X     0.0000 Y    -0.0000 Z
  Strength   :  0.000000
  Natural transition orbitals ( 1 -> 17 ):
   e-/hole pair  1 alpha:  ampl =  0.175003 (  3.1%)   [5 : 6]
   e-/hole pair  2 alpha:  ampl =  0.008290 (  0.0%)   [4 : 7]
   e-/hole pair  1 beta :  ampl =  0.045677 (  0.2%)   [5 : 6]
   e-/hole pair  2 beta :  ampl =  0.006604 (  0.0%)   [4 : 7]
   Sum of square amplitudes: 0.03

 NATURAL OCCUPATION NUMBERS (higher than 1.0E-05)
            1           2           3           4           5           6
    1   1.9999992   1.9793030   1.9327672   1.4379902   0.6355990   0.5406355
            7
    1   0.4737058
Natural Orbitals stored in FCHK

  Amplitudes : 
  
 | HOLE  | ALPHA | BETA  | PART  |    AMPLITUDE 
--------------------------------------------------
 |       | 11100 | 01010 |       |     4.7282809303425E-01
 |       | 11010 | 01100 |       |     4.7884715557092E-01
 |       | 11001 | 11000 |       |    -6.4989970399211E-01
 |       | 10101 | 10100 |       |    -1.7675583108251E-01
 |       | 01101 | 01100 |       |     2.0087871486756E-01
 |   2   | 11101 | 11000 |       |    -1.0240866045999E-01
 |   2   | 11001 | 11100 |       |    -1.3437662688339E-01
--------------------------------------------------
*** Contributions RASCI wfn    Active:  96.35
                                 Hole:   3.65
                                 Part:   0.00

      Mulliken population analysis 
 ---------------------------------------------------
   Atom    Charge (a.u.)   Spin (a.u.)  
 ---------------------------------------------------
   1  O    0.430538        0.512207 
   2  H    0.284731        0.243896 
   3  H    0.284731        0.243896 
 ---------------------------------------------------
   Sum:    1.000000        1.000000 
 ---------------------------------------------------
 
  
 NATURAL OCCUPATION NUMBERS (higher than 1.0E-05)
            1           2           3           4           5           6
    1   1.9999992   1.9793030   1.9327672   1.4379902   0.6355990   0.5406355
            7
    1   0.4737058
  
*** Unpaired Electrons
 Yamaguchi Nd:         3.36
 Head-Gordon Nu:       2.30
 Head-Gordon Nu_nl:    2.57
  
**************************************************
 RAS-CI total energy for state  18:    -73.898695945058
  Excitation energy (eV) = 21.942319453137
  State symmetry: B2    (C2v      )
  <S^2>      :  0.7500
  Dipole Moment:   -0.0000 X    -0.0000 Y     0.4752 Z
  Trans. Moment:    0.0000 X    -0.0000 Y    -0.0808 Z
  Strength   :  0.003511
  Natural transition orbitals ( 1 -> 18 ):
   e-/hole pair  1 alpha:  ampl =  0.374678 ( 14.0%)   [5 : 6]
   e-/hole pair  2 alpha:  ampl =  0.143426 (  2.1%)   [4 : 7]
   e-/hole pair  1 beta :  ampl =  0.405432 ( 16.4%)   [5 : 6]
   e-/hole pair  2 beta :  ampl =  0.059729 (  0.4%)   [4 : 7]
   Sum of square amplitudes: 0.33

 NATURAL OCCUPATION NUMBERS (higher than 1.0E-05)
            1           2           3           4           5           6
    1   1.9999997   1.9847581   1.9239391   1.0654488   1.0000000   0.9345964
            7
    1   0.0912579
Natural Orbitals stored in FCHK

  Amplitudes : 
  
 | HOLE  | ALPHA | BETA  | PART  |    AMPLITUDE 
--------------------------------------------------
 |       | 11100 | 00101 |       |     4.0345489696167E-01
 |       | 11010 | 10100 |       |     1.4240455349938E-01
 |       | 10110 | 11000 |       |     1.7478093009511E-01
 |       | 10101 | 01100 |       |     7.7746022198259E-01
 |       | 01101 | 10100 |       |     3.7400532502103E-01
--------------------------------------------------
*** Contributions RASCI wfn    Active:  98.21
                                 Hole:   1.79
                                 Part:   0.00

      Mulliken population analysis 
 ---------------------------------------------------
   Atom    Charge (a.u.)   Spin (a.u.)  
 ---------------------------------------------------
   1  O    0.400948        0.228576 
   2  H    0.299526        0.385712 
   3  H    0.299526        0.385712 
 ---------------------------------------------------
   Sum:    1.000000        1.000000 
 ---------------------------------------------------
 
  
 NATURAL OCCUPATION NUMBERS (higher than 1.0E-05)
            1           2           3           4           5           6
    1   1.9999997   1.9847581   1.9239391   1.0654488   1.0000000   0.9345964
            7
    1   0.0912579
  
*** Unpaired Electrons
 Yamaguchi Nd:         3.34
 Head-Gordon Nu:       3.05
 Head-Gordon Nu_nl:    3.04
  
**************************************************
 RAS-CI total energy for state  19:    -73.896272142495
  Excitation energy (eV) = 22.008274476554
  State symmetry: A2    (C2v      )
  <S^2>      :  0.7500
  Dipole Moment:    0.0000 X     0.0000 Y     0.4605 Z
  Trans. Moment:   -1.3073 X     0.0000 Y     0.0000 Z
  Strength   :  0.921542
  Natural transition orbitals ( 1 -> 19 ):
   e-/hole pair  1 alpha:  ampl =  0.666148 ( 44.4%)   [5 : 6]
   e-/hole pair  2 alpha:  ampl =  0.259862 (  6.8%)   [4 : 7]
   e-/hole pair  1 beta :  ampl =  0.615772 ( 37.9%)   [5 : 6]
   e-/hole pair  2 beta :  ampl =  0.192977 (  3.7%)   [4 : 7]
   Sum of square amplitudes: 0.93

 NATURAL OCCUPATION NUMBERS (higher than 1.0E-05)
            1           2           3           4           5           6
    1   1.9999991   1.9973680   1.8674507   1.1249631   1.0000000   0.8763786
            7
    1   0.1338405
Natural Orbitals stored in FCHK

  Amplitudes : 
  
 | HOLE  | ALPHA | BETA  | PART  |    AMPLITUDE 
--------------------------------------------------
 |       | 11100 | 10001 |       |    -1.9188914631286E-01
 |       | 11100 | 00110 |       |    -6.1864947602864E-01
 |       | 11001 | 10100 |       |    -2.6075855396811E-01
 |       | 01110 | 10100 |       |     6.7521044728515E-01
 |       | 01110 | 00101 |       |    -1.0942900937092E-01
 |       | 01101 | 00110 |       |    -1.2191371824311E-01
--------------------------------------------------
*** Contributions RASCI wfn    Active:  99.53
                                 Hole:   0.47
                                 Part:   0.00

      Mulliken population analysis 
 ---------------------------------------------------
   Atom    Charge (a.u.)   Spin (a.u.)  
 ---------------------------------------------------
   1  O    0.363405        0.963534 
   2  H    0.318297        0.018233 
   3  H    0.318297        0.018233 
 ---------------------------------------------------
   Sum:    1.000000        1.000000 
 ---------------------------------------------------
 
  
 NATURAL OCCUPATION NUMBERS (higher than 1.0E-05)
            1           2           3           4           5           6
    1   1.9999991   1.9973680   1.8674507   1.1249631   1.0000000   0.8763786
            7
    1   0.1338405
  
*** Unpaired Electrons
 Yamaguchi Nd:         3.47
 Head-Gordon Nu:       3.02
 Head-Gordon Nu_nl:    3.06
  
**************************************************
 RAS-CI total energy for state  20:    -73.867180040296
  Excitation energy (eV) = 22.799910854599
  State symmetry: A1    (C2v      )
  <S^2>      :  0.7500
  Dipole Moment:    0.0000 X     0.0000 Y     0.6773 Z
  Trans. Moment:   -0.0000 X    -0.4474 Y     0.0000 Z
  Strength   :  0.111799
  Natural transition orbitals ( 1 -> 20 ):
   e-/hole pair  1 alpha:  ampl =  0.150911 (  2.3%)   [5 : 6]
   e-/hole pair  2 alpha:  ampl =  0.034484 (  0.1%)   [4 : 7]
   e-/hole pair  1 beta :  ampl =  0.710607 ( 50.5%)   [5 : 6]
   e-/hole pair  2 beta :  ampl =  0.006613 (  0.0%)   [4 : 7]
   Sum of square amplitudes: 0.53

 NATURAL OCCUPATION NUMBERS (higher than 1.0E-05)
            1           2           3           4           5           6
    1   1.9999978   1.9483759   1.5293712   1.5257403   1.4798071   0.3921509
            7
    1   0.1245567
Natural Orbitals stored in FCHK

  Amplitudes : 
  
 | HOLE  | ALPHA | BETA  | PART  |    AMPLITUDE 
--------------------------------------------------
 |       | 11100 | 01001 |       |    -1.0159701739272E-01
 |       | 11010 | 11000 |       |    -1.9375171625464E-01
 |       | 11001 | 01100 |       |    -4.7257789159172E-01
 |       | 10110 | 10100 |       |     1.5345331308740E-01
 |       | 01110 | 01100 |       |     1.9475088645627E-01
 |       | 01101 | 11000 |       |    -3.7098087419897E-01
 |   2   | 11100 | 11100 |       |     7.0534521054566E-01
--------------------------------------------------
*** Contributions RASCI wfn    Active:  48.01
                                 Hole:  51.99
                                 Part:   0.00

      Mulliken population analysis 
 ---------------------------------------------------
   Atom    Charge (a.u.)   Spin (a.u.)  
 ---------------------------------------------------
   1  O    0.290647        0.594919 
   2  H    0.354677        0.202540 
   3  H    0.354677        0.202540 
 ---------------------------------------------------
   Sum:    1.000000        1.000000 
 ---------------------------------------------------
 
  
 NATURAL OCCUPATION NUMBERS (higher than 1.0E-05)
            1           2           3           4           5           6
    1   1.9999978   1.9483759   1.5293712   1.5257403   1.4798071   0.3921509
            7
    1   0.1245567
  
*** Unpaired Electrons
 Yamaguchi Nd:         3.18
 Head-Gordon Nu:       2.03
 Head-Gordon Nu_nl:    2.10
  
--------------------------------------------------
 Interstate Transition Properties
--------------------------------------------------
State A: Root  1
State B: Root  2
  
Angular momentum components
< B | Lx | A > =    -0.952435979i
< B | Ly | A > =     0.000000000i
< B | Lz | A > =    -0.000000000i
  
Norm of one-particle transition density matrix
||gamma^AB||_total       =  0.993381
||gamma^AB||_symmetrized =  0.702410
||gamma^AB||_anti-symm   =  0.702443
  
Spin-orbit couplings
 Using HF (reference) density for the 2-elec mean-field SOC contribution
KET: S',Sz' (Root   1) =  0.500 0.500
BRA: S ,Sz  (Root   2) =  0.500 0.500
Clebsh-Gordan coefficient: < 0.500, 0.500; 1.000, 0.000| 0.500, 0.500> =  0.577
 Computing 1e-SO integrals
 1e Reduced matrix elements (cm-1)
<S|| Hso(L-) ||S'> =     0.0000000000   -87.9616798248
<S|| Hso(L0) ||S'> =     0.0000000000     0.0000000000
<S|| Hso(L+) ||S'> =     0.0000000000    87.9616798248
 1-elec SOC matrix (cm-1): < B(S,Sz) | Hso(1e) | A(S',Sz') >
                     |Sz'=-0.50>              |Sz'= 0.50>
 <Sz=-0.50|    0.000000   -0.000000i     0.000000   71.820411i
 <Sz= 0.50|   -0.000000   71.820411i     0.000000    0.000000i
1-elec SOCC =   101.569399050 cm-1
 Computing 2e-SOMF integrals
 Averagin spin alpha/beta reference densities
 2e-SOMF Reduced matrix elements (cm-1)
<S|| Hso(L-) ||S'> =    -0.0000000000    34.7349784481
<S|| Hso(L0) ||S'> =     0.0000000000    -0.0000000000
<S|| Hso(L+) ||S'> =    -0.0000000000   -34.7349784481
 2-elec mean-field SOC matrix (cm-1): < B(S,Sz) | Hso(2e-mf) | A(S',Sz') >
                     |Sz'=-0.50>              |Sz'= 0.50>
 <Sz=-0.50|    0.000000    0.000000i    -0.000000  -28.360991i
 <Sz= 0.50|    0.000000  -28.360991i     0.000000   -0.000000i
 Total mean-field SOC matrix (cm-1): < B(S,Sz) | Hsomf | A(S',Sz') >
                     |Sz'=-0.50>              |Sz'= 0.50>
 <Sz=-0.50|    0.000000   -0.000000i     0.000000   43.459420i
 <Sz= 0.50|   -0.000000   43.459420i     0.000000    0.000000i
Mean-Field SOCC =    61.460900736 cm-1
   
**************************************************
State A: Root  1
State B: Root  3
  
Angular momentum components
< B | Lx | A > =    -0.000000000i
< B | Ly | A > =     0.000000000i
< B | Lz | A > =     0.906225539i
  
Norm of one-particle transition density matrix
||gamma^AB||_total       =  0.981084
||gamma^AB||_symmetrized =  0.696713
||gamma^AB||_anti-symm   =  0.690737
  
Spin-orbit couplings
 Using HF (reference) density for the 2-elec mean-field SOC contribution
KET: S',Sz' (Root   1) =  0.500 0.500
BRA: S ,Sz  (Root   3) =  0.500 0.500
Clebsh-Gordan coefficient: < 0.500, 0.500; 1.000, 0.000| 0.500, 0.500> =  0.577
 Reading 1e-SO integrals
 1e Reduced matrix elements (cm-1)
<S|| Hso(L-) ||S'> =     0.0000000000    -0.0000000000
<S|| Hso(L0) ||S'> =     0.0000000000  -102.9388781346
<S|| Hso(L+) ||S'> =     0.0000000000     0.0000000000
 1-elec SOC matrix (cm-1): < B(S,Sz) | Hso(1e) | A(S',Sz') >
                     |Sz'=-0.50>              |Sz'= 0.50>
 <Sz=-0.50|    0.000000   59.431789i     0.000000    0.000000i
 <Sz= 0.50|   -0.000000    0.000000i     0.000000  -59.431789i
1-elec SOCC =    84.049242041 cm-1
 Reading 2e-SOMF integrals
 2e-SOMF Reduced matrix elements (cm-1)
<S|| Hso(L-) ||S'> =    -0.0000000000     0.0000000000
<S|| Hso(L0) ||S'> =     0.0000000000    39.4455329048
<S|| Hso(L+) ||S'> =    -0.0000000000    -0.0000000000
 2-elec mean-field SOC matrix (cm-1): < B(S,Sz) | Hso(2e-mf) | A(S',Sz') >
                     |Sz'=-0.50>              |Sz'= 0.50>
 <Sz=-0.50|    0.000000  -22.773889i    -0.000000   -0.000000i
 <Sz= 0.50|    0.000000   -0.000000i     0.000000   22.773889i
 Total mean-field SOC matrix (cm-1): < B(S,Sz) | Hsomf | A(S',Sz') >
                     |Sz'=-0.50>              |Sz'= 0.50>
 <Sz=-0.50|    0.000000   36.657900i     0.000000    0.000000i
 <Sz= 0.50|   -0.000000    0.000000i     0.000000  -36.657900i
Mean-Field SOCC =    51.842099292 cm-1
   
**************************************************
State A: Root  1
State B: Root  4
  
Angular momentum components
< B | Lx | A > =     0.000000000i
< B | Ly | A > =     0.000000000i
< B | Lz | A > =     0.000000000i
  
Norm of one-particle transition density matrix
||gamma^AB||_total       =  0.803342
||gamma^AB||_symmetrized =  0.598012
||gamma^AB||_anti-symm   =  0.536414
  
Spin-orbit couplings
 Using HF (reference) density for the 2-elec mean-field SOC contribution
KET: S',Sz' (Root   1) =  0.500 0.500
BRA: S ,Sz  (Root   4) =  1.500 0.500
Clebsh-Gordan coefficient: < 0.500, 0.500; 1.000, 0.000| 1.500, 0.500> =  0.816
 Reading 1e-SO integrals
 1e Reduced matrix elements (cm-1)
<S|| Hso(L-) ||S'> =    -0.0000000000     0.0000000000
<S|| Hso(L0) ||S'> =     0.0000000000     0.0000000000
<S|| Hso(L+) ||S'> =    -0.0000000000    -0.0000000000
 1-elec SOC matrix (cm-1): < B(S,Sz) | Hso(1e) | A(S',Sz') >
                     |Sz'=-0.50>              |Sz'= 0.50>
 <Sz=-1.50|   -0.000000   -0.000000i     0.000000    0.000000i
 <Sz=-0.50|    0.000000    0.000000i    -0.000000   -0.000000i
 <Sz= 0.50|   -0.000000    0.000000i    -0.000000    0.000000i
 <Sz= 1.50|    0.000000    0.000000i    -0.000000    0.000000i
1-elec SOCC =     0.000000000 cm-1
 Reading 2e-SOMF integrals
 2e-SOMF Reduced matrix elements (cm-1)
<S|| Hso(L-) ||S'> =     0.0000000000    -0.0000000000
<S|| Hso(L0) ||S'> =     0.0000000000    -0.0000000000
<S|| Hso(L+) ||S'> =     0.0000000000     0.0000000000
 2-elec mean-field SOC matrix (cm-1): < B(S,Sz) | Hso(2e-mf) | A(S',Sz') >
                     |Sz'=-0.50>              |Sz'= 0.50>
 <Sz=-1.50|    0.000000    0.000000i     0.000000    0.000000i
 <Sz=-0.50|   -0.000000   -0.000000i     0.000000    0.000000i
 <Sz= 0.50|    0.000000   -0.000000i     0.000000   -0.000000i
 <Sz= 1.50|    0.000000    0.000000i     0.000000   -0.000000i
 Total mean-field SOC matrix (cm-1): < B(S,Sz) | Hsomf | A(S',Sz') >
                     |Sz'=-0.50>              |Sz'= 0.50>
 <Sz=-1.50|   -0.000000   -0.000000i     0.000000    0.000000i
 <Sz=-0.50|    0.000000    0.000000i    -0.000000   -0.000000i
 <Sz= 0.50|   -0.000000    0.000000i    -0.000000    0.000000i
 <Sz= 1.50|    0.000000    0.000000i    -0.000000    0.000000i
Mean-Field SOCC =     0.000000000 cm-1
   
**************************************************
State A: Root  1
State B: Root  5
  
Angular momentum components
< B | Lx | A > =    -0.000000000i
< B | Ly | A > =     0.000000000i
< B | Lz | A > =    -0.000000000i
  
Norm of one-particle transition density matrix
||gamma^AB||_total       =  0.807625
||gamma^AB||_symmetrized =  0.607873
||gamma^AB||_anti-symm   =  0.531742
  
Spin-orbit couplings
 Using HF (reference) density for the 2-elec mean-field SOC contribution
KET: S',Sz' (Root   1) =  0.500 0.500
BRA: S ,Sz  (Root   5) =  1.500 0.500
Clebsh-Gordan coefficient: < 0.500, 0.500; 1.000, 0.000| 1.500, 0.500> =  0.816
 Reading 1e-SO integrals
 1e Reduced matrix elements (cm-1)
<S|| Hso(L-) ||S'> =    32.5586491345     0.0000000000
<S|| Hso(L0) ||S'> =     0.0000000000     0.0000000000
<S|| Hso(L+) ||S'> =    32.5586491345    -0.0000000000
 1-elec SOC matrix (cm-1): < B(S,Sz) | Hso(1e) | A(S',Sz') >
                     |Sz'=-0.50>              |Sz'= 0.50>
 <Sz=-1.50|   32.558649   -0.000000i     0.000000    0.000000i
 <Sz=-0.50|   -0.000000    0.000000i    18.797745   -0.000000i
 <Sz= 0.50|   18.797745    0.000000i     0.000000    0.000000i
 <Sz= 1.50|    0.000000    0.000000i    32.558649    0.000000i
1-elec SOCC =    53.168051396 cm-1
 Reading 2e-SOMF integrals
 2e-SOMF Reduced matrix elements (cm-1)
<S|| Hso(L-) ||S'> =   -12.5000231118    -0.0000000000
<S|| Hso(L0) ||S'> =     0.0000000000    -0.0000000000
<S|| Hso(L+) ||S'> =   -12.5000231118     0.0000000000
 2-elec mean-field SOC matrix (cm-1): < B(S,Sz) | Hso(2e-mf) | A(S',Sz') >
                     |Sz'=-0.50>              |Sz'= 0.50>
 <Sz=-1.50|  -12.500023    0.000000i     0.000000    0.000000i
 <Sz=-0.50|    0.000000   -0.000000i    -7.216892    0.000000i
 <Sz= 0.50|   -7.216892   -0.000000i    -0.000000   -0.000000i
 <Sz= 1.50|    0.000000    0.000000i   -12.500023   -0.000000i
 Total mean-field SOC matrix (cm-1): < B(S,Sz) | Hsomf | A(S',Sz') >
                     |Sz'=-0.50>              |Sz'= 0.50>
 <Sz=-1.50|   20.058626   -0.000000i     0.000000    0.000000i
 <Sz=-0.50|   -0.000000    0.000000i    11.580853   -0.000000i
 <Sz= 0.50|   11.580853    0.000000i     0.000000    0.000000i
 <Sz= 1.50|    0.000000    0.000000i    20.058626    0.000000i
Mean-Field SOCC =    32.755599131 cm-1
   
**************************************************
State A: Root  1
State B: Root  6
  
Angular momentum components
< B | Lx | A > =     0.244742644i
< B | Ly | A > =    -0.000000000i
< B | Lz | A > =     0.000000000i
  
Norm of one-particle transition density matrix
||gamma^AB||_total       =  0.938189
||gamma^AB||_symmetrized =  0.674722
||gamma^AB||_anti-symm   =  0.651881
  
Spin-orbit couplings
 Using HF (reference) density for the 2-elec mean-field SOC contribution
KET: S',Sz' (Root   1) =  0.500 0.500
BRA: S ,Sz  (Root   6) =  0.500 0.500
Clebsh-Gordan coefficient: < 0.500, 0.500; 1.000, 0.000| 0.500, 0.500> =  0.577
 Reading 1e-SO integrals
 1e Reduced matrix elements (cm-1)
<S|| Hso(L-) ||S'> =     0.0000000000   -47.1861243050
<S|| Hso(L0) ||S'> =     0.0000000000     0.0000000000
<S|| Hso(L+) ||S'> =     0.0000000000    47.1861243050
 1-elec SOC matrix (cm-1): < B(S,Sz) | Hso(1e) | A(S',Sz') >
                     |Sz'=-0.50>              |Sz'= 0.50>
 <Sz=-0.50|    0.000000   -0.000000i     0.000000   38.527309i
 <Sz= 0.50|   -0.000000   38.527309i     0.000000    0.000000i
1-elec SOCC =    54.485843139 cm-1
 Reading 2e-SOMF integrals
 2e-SOMF Reduced matrix elements (cm-1)
<S|| Hso(L-) ||S'> =    -0.0000000000    16.9148056811
<S|| Hso(L0) ||S'> =     0.0000000000    -0.0000000000
<S|| Hso(L+) ||S'> =    -0.0000000000   -16.9148056811
 2-elec mean-field SOC matrix (cm-1): < B(S,Sz) | Hso(2e-mf) | A(S',Sz') >
                     |Sz'=-0.50>              |Sz'= 0.50>
 <Sz=-0.50|    0.000000    0.000000i    -0.000000  -13.810881i
 <Sz= 0.50|    0.000000  -13.810881i     0.000000   -0.000000i
 Total mean-field SOC matrix (cm-1): < B(S,Sz) | Hsomf | A(S',Sz') >
                     |Sz'=-0.50>              |Sz'= 0.50>
 <Sz=-0.50|    0.000000   -0.000000i     0.000000   24.716428i
 <Sz= 0.50|   -0.000000   24.716428i     0.000000    0.000000i
Mean-Field SOCC =    34.954307912 cm-1
   
**************************************************
State A: Root  1
State B: Root  7
  
Angular momentum components
< B | Lx | A > =     0.000000000i
< B | Ly | A > =     0.000000000i
< B | Lz | A > =    -0.000000000i
  
Norm of one-particle transition density matrix
||gamma^AB||_total       =  0.783100
||gamma^AB||_symmetrized =  0.554746
||gamma^AB||_anti-symm   =  0.552722
  
Spin-orbit couplings
 Using HF (reference) density for the 2-elec mean-field SOC contribution
KET: S',Sz' (Root   1) =  0.500 0.500
BRA: S ,Sz  (Root   7) =  0.500 0.500
Clebsh-Gordan coefficient: < 0.500, 0.500; 1.000, 0.000| 0.500, 0.500> =  0.577
 Reading 1e-SO integrals
 1e Reduced matrix elements (cm-1)
<S|| Hso(L-) ||S'> =    -0.0000000000    -0.0000000000
<S|| Hso(L0) ||S'> =     0.0000000000     0.0000000000
<S|| Hso(L+) ||S'> =    -0.0000000000     0.0000000000
 1-elec SOC matrix (cm-1): < B(S,Sz) | Hso(1e) | A(S',Sz') >
                     |Sz'=-0.50>              |Sz'= 0.50>
 <Sz=-0.50|    0.000000   -0.000000i    -0.000000    0.000000i
 <Sz= 0.50|    0.000000    0.000000i     0.000000    0.000000i
1-elec SOCC =     0.000000000 cm-1
 Reading 2e-SOMF integrals
 2e-SOMF Reduced matrix elements (cm-1)
<S|| Hso(L-) ||S'> =     0.0000000000     0.0000000000
<S|| Hso(L0) ||S'> =     0.0000000000    -0.0000000000
<S|| Hso(L+) ||S'> =     0.0000000000    -0.0000000000
 2-elec mean-field SOC matrix (cm-1): < B(S,Sz) | Hso(2e-mf) | A(S',Sz') >
                     |Sz'=-0.50>              |Sz'= 0.50>
 <Sz=-0.50|    0.000000    0.000000i     0.000000   -0.000000i
 <Sz= 0.50|   -0.000000   -0.000000i     0.000000   -0.000000i
 Total mean-field SOC matrix (cm-1): < B(S,Sz) | Hsomf | A(S',Sz') >
                     |Sz'=-0.50>              |Sz'= 0.50>
 <Sz=-0.50|    0.000000   -0.000000i    -0.000000    0.000000i
 <Sz= 0.50|    0.000000    0.000000i     0.000000    0.000000i
Mean-Field SOCC =     0.000000000 cm-1
   
**************************************************
State A: Root  1
State B: Root  8
  
Angular momentum components
< B | Lx | A > =    -0.000000000i
< B | Ly | A > =    -0.000000000i
< B | Lz | A > =     0.000000000i
  
Norm of one-particle transition density matrix
||gamma^AB||_total       =  0.803622
||gamma^AB||_symmetrized =  0.570509
||gamma^AB||_anti-symm   =  0.565975
  
Spin-orbit couplings
 Using HF (reference) density for the 2-elec mean-field SOC contribution
KET: S',Sz' (Root   1) =  0.500 0.500
BRA: S ,Sz  (Root   8) =  0.500 0.500
Clebsh-Gordan coefficient: < 0.500, 0.500; 1.000, 0.000| 0.500, 0.500> =  0.577
 Reading 1e-SO integrals
 1e Reduced matrix elements (cm-1)
<S|| Hso(L-) ||S'> =    -0.0000000000    -0.0000000000
<S|| Hso(L0) ||S'> =     0.0000000000     0.0000000000
<S|| Hso(L+) ||S'> =    -0.0000000000     0.0000000000
 1-elec SOC matrix (cm-1): < B(S,Sz) | Hso(1e) | A(S',Sz') >
                     |Sz'=-0.50>              |Sz'= 0.50>
 <Sz=-0.50|    0.000000   -0.000000i    -0.000000    0.000000i
 <Sz= 0.50|    0.000000    0.000000i     0.000000    0.000000i
1-elec SOCC =     0.000000000 cm-1
 Reading 2e-SOMF integrals
 2e-SOMF Reduced matrix elements (cm-1)
<S|| Hso(L-) ||S'> =     0.0000000000     0.0000000000
<S|| Hso(L0) ||S'> =     0.0000000000    -0.0000000000
<S|| Hso(L+) ||S'> =     0.0000000000    -0.0000000000
 2-elec mean-field SOC matrix (cm-1): < B(S,Sz) | Hso(2e-mf) | A(S',Sz') >
                     |Sz'=-0.50>              |Sz'= 0.50>
 <Sz=-0.50|    0.000000    0.000000i     0.000000   -0.000000i
 <Sz= 0.50|   -0.000000   -0.000000i     0.000000   -0.000000i
 Total mean-field SOC matrix (cm-1): < B(S,Sz) | Hsomf | A(S',Sz') >
                     |Sz'=-0.50>              |Sz'= 0.50>
 <Sz=-0.50|    0.000000   -0.000000i    -0.000000    0.000000i
 <Sz= 0.50|    0.000000    0.000000i     0.000000    0.000000i
Mean-Field SOCC =     0.000000000 cm-1
   
**************************************************
State A: Root  1
State B: Root  9
  
Angular momentum components
< B | Lx | A > =     0.000000000i
< B | Ly | A > =     0.389261469i
< B | Lz | A > =    -0.000000000i
  
Norm of one-particle transition density matrix
||gamma^AB||_total       =  0.736305
||gamma^AB||_symmetrized =  0.525857
||gamma^AB||_anti-symm   =  0.515383
  
Spin-orbit couplings
 Using HF (reference) density for the 2-elec mean-field SOC contribution
KET: S',Sz' (Root   1) =  0.500 0.500
BRA: S ,Sz  (Root   9) =  0.500 0.500
Clebsh-Gordan coefficient: < 0.500, 0.500; 1.000, 0.000| 0.500, 0.500> =  0.577
 Reading 1e-SO integrals
 1e Reduced matrix elements (cm-1)
<S|| Hso(L-) ||S'> =    34.2665748001    -0.0000000000
<S|| Hso(L0) ||S'> =     0.0000000000    -0.0000000000
<S|| Hso(L+) ||S'> =    34.2665748001     0.0000000000
 1-elec SOC matrix (cm-1): < B(S,Sz) | Hso(1e) | A(S',Sz') >
                     |Sz'=-0.50>              |Sz'= 0.50>
 <Sz=-0.50|    0.000000    0.000000i    27.978541    0.000000i
 <Sz= 0.50|  -27.978541    0.000000i     0.000000   -0.000000i
1-elec SOCC =    39.567632370 cm-1
 Reading 2e-SOMF integrals
 2e-SOMF Reduced matrix elements (cm-1)
<S|| Hso(L-) ||S'> =   -13.3507223197     0.0000000000
<S|| Hso(L0) ||S'> =     0.0000000000     0.0000000000
<S|| Hso(L+) ||S'> =   -13.3507223197    -0.0000000000
 2-elec mean-field SOC matrix (cm-1): < B(S,Sz) | Hso(2e-mf) | A(S',Sz') >
                     |Sz'=-0.50>              |Sz'= 0.50>
 <Sz=-0.50|    0.000000   -0.000000i   -10.900819   -0.000000i
 <Sz= 0.50|   10.900819   -0.000000i     0.000000    0.000000i
 Total mean-field SOC matrix (cm-1): < B(S,Sz) | Hsomf | A(S',Sz') >
                     |Sz'=-0.50>              |Sz'= 0.50>
 <Sz=-0.50|    0.000000    0.000000i    17.077722    0.000000i
 <Sz= 0.50|  -17.077722    0.000000i     0.000000   -0.000000i
Mean-Field SOCC =    24.151546120 cm-1
   
**************************************************
State A: Root  1
State B: Root 10
  
Angular momentum components
< B | Lx | A > =     0.000000000i
< B | Ly | A > =    -0.000000000i
< B | Lz | A > =     0.000000000i
  
Norm of one-particle transition density matrix
||gamma^AB||_total       =  0.798668
||gamma^AB||_symmetrized =  0.572517
||gamma^AB||_anti-symm   =  0.556861
  
Spin-orbit couplings
 Using HF (reference) density for the 2-elec mean-field SOC contribution
KET: S',Sz' (Root   1) =  0.500 0.500
BRA: S ,Sz  (Root  10) =  1.500 0.500
Clebsh-Gordan coefficient: < 0.500, 0.500; 1.000, 0.000| 1.500, 0.500> =  0.816
 Reading 1e-SO integrals
 1e Reduced matrix elements (cm-1)
<S|| Hso(L-) ||S'> =   -52.7469902946     0.0000000000
<S|| Hso(L0) ||S'> =     0.0000000000    -0.0000000000
<S|| Hso(L+) ||S'> =   -52.7469902946    -0.0000000000
 1-elec SOC matrix (cm-1): < B(S,Sz) | Hso(1e) | A(S',Sz') >
                     |Sz'=-0.50>              |Sz'= 0.50>
 <Sz=-1.50|  -52.746990   -0.000000i     0.000000    0.000000i
 <Sz=-0.50|    0.000000   -0.000000i   -30.453489   -0.000000i
[...]
 <Sz=-1.50|   -0.000000  -24.041706i     0.000000    0.000000i
 <Sz=-0.50|    0.000000    0.000000i    -0.000000  -13.880485i
 <Sz= 0.50|   -0.000000   13.880485i    -0.000000    0.000000i
 <Sz= 1.50|    0.000000    0.000000i    -0.000000   24.041706i
Mean-Field SOCC =    39.259940928 cm-1
   
**************************************************
State A: Root 20
State B: Root 15
  
Angular momentum components
< B | Lx | A > =     0.000000000i
< B | Ly | A > =     0.000000000i
< B | Lz | A > =     0.000000000i
  
Norm of one-particle transition density matrix
||gamma^AB||_total       =  0.337796
||gamma^AB||_symmetrized =  0.296437
||gamma^AB||_anti-symm   =  0.161962
  
Spin-orbit couplings
 Using HF (reference) density for the 2-elec mean-field SOC contribution
KET: S',Sz' (Root  20) =  0.500 0.500
BRA: S ,Sz  (Root  15) =  0.500 0.500
Clebsh-Gordan coefficient: < 0.500, 0.500; 1.000, 0.000| 0.500, 0.500> =  0.577
 Reading 1e-SO integrals
 1e Reduced matrix elements (cm-1)
<S|| Hso(L-) ||S'> =    -0.0000000000    -0.0000000000
<S|| Hso(L0) ||S'> =     0.0000000000    -0.0000000000
<S|| Hso(L+) ||S'> =    -0.0000000000     0.0000000000
 1-elec SOC matrix (cm-1): < B(S,Sz) | Hso(1e) | A(S',Sz') >
                     |Sz'=-0.50>              |Sz'= 0.50>
 <Sz=-0.50|    0.000000    0.000000i    -0.000000    0.000000i
 <Sz= 0.50|    0.000000    0.000000i     0.000000   -0.000000i
1-elec SOCC =     0.000000000 cm-1
 Reading 2e-SOMF integrals
 2e-SOMF Reduced matrix elements (cm-1)
<S|| Hso(L-) ||S'> =     0.0000000000     0.0000000000
<S|| Hso(L0) ||S'> =     0.0000000000     0.0000000000
<S|| Hso(L+) ||S'> =     0.0000000000    -0.0000000000
 2-elec mean-field SOC matrix (cm-1): < B(S,Sz) | Hso(2e-mf) | A(S',Sz') >
                     |Sz'=-0.50>              |Sz'= 0.50>
 <Sz=-0.50|    0.000000   -0.000000i     0.000000   -0.000000i
 <Sz= 0.50|   -0.000000   -0.000000i     0.000000    0.000000i
 Total mean-field SOC matrix (cm-1): < B(S,Sz) | Hsomf | A(S',Sz') >
                     |Sz'=-0.50>              |Sz'= 0.50>
 <Sz=-0.50|    0.000000    0.000000i    -0.000000    0.000000i
 <Sz= 0.50|    0.000000    0.000000i     0.000000   -0.000000i
Mean-Field SOCC =     0.000000000 cm-1
   
**************************************************
State A: Root 20
State B: Root 16
  
Angular momentum components
< B | Lx | A > =    -0.000000000i
< B | Ly | A > =     0.000000000i
< B | Lz | A > =     0.308801595i
  
Norm of one-particle transition density matrix
||gamma^AB||_total       =  0.183092
||gamma^AB||_symmetrized =  0.043304
||gamma^AB||_anti-symm   =  0.177897
  
Spin-orbit couplings
 Using HF (reference) density for the 2-elec mean-field SOC contribution
KET: S',Sz' (Root  20) =  0.500 0.500
BRA: S ,Sz  (Root  16) =  0.500 0.500
Clebsh-Gordan coefficient: < 0.500, 0.500; 1.000, 0.000| 0.500, 0.500> =  0.577
 Reading 1e-SO integrals
 1e Reduced matrix elements (cm-1)
<S|| Hso(L-) ||S'> =     0.0000000000     0.0000000000
<S|| Hso(L0) ||S'> =     0.0000000000   -10.7530716197
<S|| Hso(L+) ||S'> =     0.0000000000    -0.0000000000
 1-elec SOC matrix (cm-1): < B(S,Sz) | Hso(1e) | A(S',Sz') >
                     |Sz'=-0.50>              |Sz'= 0.50>
 <Sz=-0.50|    0.000000    6.208289i     0.000000   -0.000000i
 <Sz= 0.50|   -0.000000   -0.000000i     0.000000   -6.208289i
1-elec SOCC =     8.779846212 cm-1
 Reading 2e-SOMF integrals
 2e-SOMF Reduced matrix elements (cm-1)
<S|| Hso(L-) ||S'> =    -0.0000000000    -0.0000000000
<S|| Hso(L0) ||S'> =     0.0000000000     4.1939744240
<S|| Hso(L+) ||S'> =    -0.0000000000     0.0000000000
 2-elec mean-field SOC matrix (cm-1): < B(S,Sz) | Hso(2e-mf) | A(S',Sz') >
                     |Sz'=-0.50>              |Sz'= 0.50>
 <Sz=-0.50|    0.000000   -2.421392i    -0.000000    0.000000i
 <Sz= 0.50|    0.000000    0.000000i     0.000000    2.421392i
 Total mean-field SOC matrix (cm-1): < B(S,Sz) | Hsomf | A(S',Sz') >
                     |Sz'=-0.50>              |Sz'= 0.50>
 <Sz=-0.50|    0.000000    3.786897i     0.000000   -0.000000i
 <Sz= 0.50|   -0.000000   -0.000000i     0.000000   -3.786897i
Mean-Field SOCC =     5.355480434 cm-1
   
**************************************************
State A: Root 20
State B: Root 17
  
Angular momentum components
< B | Lx | A > =     0.000000000i
< B | Ly | A > =    -0.969941549i
< B | Lz | A > =     0.000000000i
  
Norm of one-particle transition density matrix
||gamma^AB||_total       =  0.587625
||gamma^AB||_symmetrized =  0.232257
||gamma^AB||_anti-symm   =  0.539778
  
Spin-orbit couplings
 Using HF (reference) density for the 2-elec mean-field SOC contribution
KET: S',Sz' (Root  20) =  0.500 0.500
BRA: S ,Sz  (Root  17) =  0.500 0.500
Clebsh-Gordan coefficient: < 0.500, 0.500; 1.000, 0.000| 0.500, 0.500> =  0.577
 Reading 1e-SO integrals
 1e Reduced matrix elements (cm-1)
<S|| Hso(L-) ||S'> =    19.0465131838     0.0000000000
<S|| Hso(L0) ||S'> =     0.0000000000     0.0000000000
<S|| Hso(L+) ||S'> =    19.0465131838    -0.0000000000
 1-elec SOC matrix (cm-1): < B(S,Sz) | Hso(1e) | A(S',Sz') >
                     |Sz'=-0.50>              |Sz'= 0.50>
 <Sz=-0.50|    0.000000   -0.000000i    15.551413   -0.000000i
 <Sz= 0.50|  -15.551413   -0.000000i     0.000000    0.000000i
1-elec SOCC =    21.993019028 cm-1
 Reading 2e-SOMF integrals
 2e-SOMF Reduced matrix elements (cm-1)
<S|| Hso(L-) ||S'> =    -6.8366342487    -0.0000000000
<S|| Hso(L0) ||S'> =     0.0000000000    -0.0000000000
<S|| Hso(L+) ||S'> =    -6.8366342487     0.0000000000
 2-elec mean-field SOC matrix (cm-1): < B(S,Sz) | Hso(2e-mf) | A(S',Sz') >
                     |Sz'=-0.50>              |Sz'= 0.50>
 <Sz=-0.50|    0.000000    0.000000i    -5.582088    0.000000i
 <Sz= 0.50|    5.582088    0.000000i     0.000000   -0.000000i
 Total mean-field SOC matrix (cm-1): < B(S,Sz) | Hsomf | A(S',Sz') >
                     |Sz'=-0.50>              |Sz'= 0.50>
 <Sz=-0.50|    0.000000   -0.000000i     9.969324   -0.000000i
 <Sz= 0.50|   -9.969324   -0.000000i     0.000000    0.000000i
Mean-Field SOCC =    14.098753780 cm-1
   
**************************************************
State A: Root 20
State B: Root 18
  
Angular momentum components
< B | Lx | A > =    -0.661186497i
< B | Ly | A > =     0.000000000i
< B | Lz | A > =    -0.000000000i
  
Norm of one-particle transition density matrix
||gamma^AB||_total       =  0.469803
||gamma^AB||_symmetrized =  0.307135
||gamma^AB||_anti-symm   =  0.355503
  
Spin-orbit couplings
 Using HF (reference) density for the 2-elec mean-field SOC contribution
KET: S',Sz' (Root  20) =  0.500 0.500
BRA: S ,Sz  (Root  18) =  0.500 0.500
Clebsh-Gordan coefficient: < 0.500, 0.500; 1.000, 0.000| 0.500, 0.500> =  0.577
 Reading 1e-SO integrals
 1e Reduced matrix elements (cm-1)
<S|| Hso(L-) ||S'> =    -0.0000000000    15.9485001129
<S|| Hso(L0) ||S'> =     0.0000000000    -0.0000000000
<S|| Hso(L+) ||S'> =    -0.0000000000   -15.9485001129
 1-elec SOC matrix (cm-1): < B(S,Sz) | Hso(1e) | A(S',Sz') >
                     |Sz'=-0.50>              |Sz'= 0.50>
 <Sz=-0.50|    0.000000    0.000000i    -0.000000  -13.021896i
 <Sz= 0.50|    0.000000  -13.021896i     0.000000   -0.000000i
1-elec SOCC =    18.415741667 cm-1
 Reading 2e-SOMF integrals
 2e-SOMF Reduced matrix elements (cm-1)
<S|| Hso(L-) ||S'> =     0.0000000000    -6.3211161158
<S|| Hso(L0) ||S'> =     0.0000000000     0.0000000000
<S|| Hso(L+) ||S'> =     0.0000000000     6.3211161158
 2-elec mean-field SOC matrix (cm-1): < B(S,Sz) | Hso(2e-mf) | A(S',Sz') >
                     |Sz'=-0.50>              |Sz'= 0.50>
 <Sz=-0.50|    0.000000   -0.000000i     0.000000    5.161170i
 <Sz= 0.50|   -0.000000    5.161170i     0.000000    0.000000i
 Total mean-field SOC matrix (cm-1): < B(S,Sz) | Hsomf | A(S',Sz') >
                     |Sz'=-0.50>              |Sz'= 0.50>
 <Sz=-0.50|    0.000000    0.000000i    -0.000000   -7.860726i
 <Sz= 0.50|    0.000000   -7.860726i     0.000000   -0.000000i
Mean-Field SOCC =    11.116745485 cm-1
   
**************************************************
State A: Root 20
State B: Root 19
  
Angular momentum components
< B | Lx | A > =    -0.000000000i
< B | Ly | A > =    -0.000000000i
< B | Lz | A > =    -0.217351485i
  
Norm of one-particle transition density matrix
||gamma^AB||_total       =  0.309133
||gamma^AB||_symmetrized =  0.232962
||gamma^AB||_anti-symm   =  0.203204
  
Spin-orbit couplings
 Using HF (reference) density for the 2-elec mean-field SOC contribution
KET: S',Sz' (Root  20) =  0.500 0.500
BRA: S ,Sz  (Root  19) =  0.500 0.500
Clebsh-Gordan coefficient: < 0.500, 0.500; 1.000, 0.000| 0.500, 0.500> =  0.577
 Reading 1e-SO integrals
 1e Reduced matrix elements (cm-1)
<S|| Hso(L-) ||S'> =     0.0000000000    -0.0000000000
<S|| Hso(L0) ||S'> =     0.0000000000    41.9714711146
<S|| Hso(L+) ||S'> =     0.0000000000     0.0000000000
 1-elec SOC matrix (cm-1): < B(S,Sz) | Hso(1e) | A(S',Sz') >
                     |Sz'=-0.50>              |Sz'= 0.50>
 <Sz=-0.50|    0.000000  -24.232240i     0.000000    0.000000i
 <Sz= 0.50|   -0.000000    0.000000i     0.000000   24.232240i
1-elec SOCC =    34.269562662 cm-1
 Reading 2e-SOMF integrals
 2e-SOMF Reduced matrix elements (cm-1)
<S|| Hso(L-) ||S'> =    -0.0000000000     0.0000000000
<S|| Hso(L0) ||S'> =     0.0000000000   -15.8606169376
<S|| Hso(L+) ||S'> =    -0.0000000000    -0.0000000000
 2-elec mean-field SOC matrix (cm-1): < B(S,Sz) | Hso(2e-mf) | A(S',Sz') >
                     |Sz'=-0.50>              |Sz'= 0.50>
 <Sz=-0.50|    0.000000    9.157131i    -0.000000   -0.000000i
 <Sz= 0.50|    0.000000   -0.000000i     0.000000   -9.157131i
 Total mean-field SOC matrix (cm-1): < B(S,Sz) | Hsomf | A(S',Sz') >
                     |Sz'=-0.50>              |Sz'= 0.50>
 <Sz=-0.50|    0.000000  -15.075109i     0.000000    0.000000i
 <Sz= 0.50|   -0.000000    0.000000i     0.000000   15.075109i
Mean-Field SOCC =    21.319423161 cm-1
   
**************************************************
RAS-CI timing summary (seconds)
  CPU time          3.11s
  System time       0.00s
  Wall time         8.00s
Detailed CPU timing summary
     Fock matrix         :         0.0034 s
     Integrals           :         0.0061 s
     Addressing matrices :         0.0001 s
     Guesses             :         0.0005 s
     Iterations          :         2.5902 s
     Properties          :         0.5045 s
     RAS-CI(2) correction:         0.0000 s
  
 
 --------------------------------------------------------------
             Orbital Energies (a.u.) and Symmetries
 --------------------------------------------------------------
 
 Alpha MOs, Restricted
 -- Doubly Occupied --           
-20.956  -1.823  -1.150  -0.972
  1 A1    2 A1    1 B1    1 B2                                                 
 -- Singly Occupied (Occupied) --
 -1.135
  3 A1                                                                         
 -- Virtual --                   
  0.075   0.181
  4 A1    2 B1                                                                 
 
 Beta MOs, Restricted
 -- Doubly Occupied --           
-20.956  -1.823  -1.150  -0.972
  1 A1    2 A1    1 B1    1 B2                                                 
 -- Singly Occupied (Vacant) --  
 -1.135
  3 A1                                                                         
 -- Virtual --                   
  0.075   0.181
  4 A1    2 B1                                                                 
 --------------------------------------------------------------
 

                        RESTRICTED (RHF) MOLECULAR ORBITAL COEFFICIENTS
                         1         2         3         4         5         6
 eigenvalues:        -20.956    -1.823    -1.150    -0.972    -1.135     0.075
   1  O     s        0.99446  -0.23666   0.00000  -0.00000  -0.09093  -0.12847
   2  O     s        0.02469   0.87245  -0.00000  -0.00000   0.43489   0.84603
   3  O     px       0.00000   0.00000   0.71128  -0.00000   0.00000  -0.00000
   4  O     py       0.00000  -0.00000   0.00000   1.00000   0.00000   0.00000
   5  O     pz      -0.00295  -0.17583   0.00000  -0.00000   0.86202  -0.60219
   6  H 1   s       -0.00521   0.12601  -0.34681   0.00000  -0.18064  -0.81150
   7  H 2   s       -0.00521   0.12601   0.34681   0.00000  -0.18064  -0.81150
                         7
 eigenvalues:          0.181
   1  O     s       -0.00000
   2  O     s        0.00000
   3  O     px       0.90296
   4  O     py      -0.00000
   5  O     pz      -0.00000
   6  H 1   s        0.84866
   7  H 2   s       -0.84866
 

======= MOLECULAR ORBITALS IN MOLDEN FORMAT =======
[Molden Format]
[Atoms] (Angs)
  O      1    8      0.00000000      0.00000000      0.11555121
  H      2    1     -0.81253118     -0.00000000     -0.46220486
  H      3    1      0.81253118     -0.00000000     -0.46220486
[GTO]
1    0
S    3    1.000000
   1.30709320E+02    1.54328970E-01 
   2.38088610E+01    5.35328140E-01 
   6.44360830E+00    4.44634540E-01 
SP   3    1.000000
   5.03315130E+00   -9.99672300E-02   1.55916270E-01 
   1.16959610E+00    3.99512830E-01   6.07683720E-01 
   3.80389000E-01    7.00115470E-01   3.91957390E-01 

2    0
S    3    1.000000
   3.42525091E+00    1.54328970E-01 
   6.23913730E-01    5.35328140E-01 
   1.68855400E-01    4.44634540E-01 

3    0
S    3    1.000000
   3.42525091E+00    1.54328970E-01 
   6.23913730E-01    5.35328140E-01 
   1.68855400E-01    4.44634540E-01 

[MO]
Sym=X
Ene= -20.956432
Spin=Alpha
Occup=1
     1    9.944618961906e-01
     2    2.468891049617e-02
     3    9.971169731258e-17
     4    2.880451116855e-17
     5   -2.949485857678e-03
     6   -5.208326529798e-03
     7   -5.208326529798e-03
Sym=X
Ene= -1.822743
Spin=Alpha
Occup=1
     1   -2.366631760654e-01
     2    8.724545673526e-01
     3    2.364141002944e-15
     4   -2.622869498572e-16
     5   -1.758294170102e-01
     6    1.260083797182e-01
     7    1.260083797182e-01
Sym=X
Ene= -1.149860
Spin=Alpha
Occup=1
     1    1.806434367850e-15
     2   -3.631783437336e-15
     3    7.112790078491e-01
     4    1.457969477281e-17
     5    3.501420045762e-16
     6   -3.468100584544e-01
     7    3.468100584544e-01
Sym=X
Ene= -0.972443
Spin=Alpha
Occup=1
     1   -5.658827740364e-16
     2   -3.056176164644e-16
     3   -1.390186537144e-18
     4    1.000000000000e+00
     5   -8.137414923994e-16
     6    3.745188385748e-16
     7    2.771952887746e-16
Sym=X
Ene= -1.135399
Spin=Alpha
Occup=1
     1   -9.092583330597e-02
     2    4.348884555646e-01
     3    3.882835130919e-16
     4    1.822116337965e-15
     5    8.620183470451e-01
     6   -1.806390149155e-01
     7   -1.806390149155e-01
Sym=X
Ene= 0.074887
Spin=Alpha
Occup=0
     1   -1.284700799717e-01
     2    8.460322459306e-01
     3   -5.944624018113e-15
     4    6.333326644853e-17
     5   -6.021929548837e-01
     6   -8.114956728004e-01
     7   -8.114956728004e-01
Sym=X
Ene= 0.181110
Spin=Alpha
Occup=0
     1   -8.555808298530e-16
     2    5.381124527873e-15
     3    9.029555117380e-01
     4   -1.196153935113e-17
     5   -3.821196457474e-15
     6    8.486584784831e-01
     7   -8.486584784831e-01

======= END OF MOLDEN-FORMAT MOLECULAR ORBITALS =======

          Ground-State Mulliken Net Atomic Charges

     Atom                 Charge (a.u.)
  ----------------------------------------
      1 O                     0.048962
      2 H                     0.475519
      3 H                     0.475519
  ----------------------------------------
  Sum of atomic charges =     1.000000

 -----------------------------------------------------------------
                    Cartesian Multipole Moments
 -----------------------------------------------------------------
    Charge (ESU x 10^10)
                 4.8032
    Dipole Moment (Debye)
         X      -0.0000      Y       0.0000      Z      -1.8993
       Tot       1.8993
    Quadrupole Moments (Debye-Ang)
        XX      -1.7097     XY       0.0000     YY      -5.4316
        XZ       0.0000     YZ       0.0000     ZZ      -3.2320
    Octopole Moments (Debye-Ang^2)
       XXX      -0.0000    XXY      -0.0000    XYY      -0.0000
       YYY      -0.0000    XXZ      -1.7814    XYZ      -0.0000
       YYZ      -0.1378    XZZ       0.0000    YZZ      -0.0000
       ZZZ      -0.7126
    Hexadecapole Moments (Debye-Ang^3)
      XXXX      -3.1459   XXXY       0.0000   XXYY      -1.4108
      XYYY      -0.0000   YYYY      -2.8013   XXXZ       0.0000
      XXYZ       0.0000   XYYZ       0.0000   YYYZ       0.0000
      XXZZ      -0.6180   XYZZ       0.0000   YYZZ      -1.0158
      XZZZ       0.0000   YZZZ       0.0000   ZZZZ      -2.9171
 -----------------------------------------------------------------
 Mayer SCF Bond Order, atomic valence on the diagonal:

            1           2           3
    1   1.4912081   0.7456041   0.7456041
    2   0.7456041   0.7723316   0.0267276
    3   0.7456041   0.0267276   0.7723316


 Total job time:  11.52s(wall), 3.26s(cpu) 
 Mon Jul 10 10:45:47 2023

======= MOLDEN-FORMATTED INPUT FILE FOLLOWS =======
[Molden Format]
[Atoms] (Angs)
  O      1    8      0.00000000      0.00000000      0.11555121
  H      2    1     -0.81253118     -0.00000000     -0.46220486
  H      3    1      0.81253118     -0.00000000     -0.46220486
[GTO]
1    0
S    3    1.000000
   1.30709320E+02    1.54328970E-01 
   2.38088610E+01    5.35328140E-01 
   6.44360830E+00    4.44634540E-01 
SP   3    1.000000
   5.03315130E+00   -9.99672300E-02   1.55916270E-01 
   1.16959610E+00    3.99512830E-01   6.07683720E-01 
   3.80389000E-01    7.00115470E-01   3.91957390E-01 

2    0
S    3    1.000000
   3.42525091E+00    1.54328970E-01 
   6.23913730E-01    5.35328140E-01 
   1.68855400E-01    4.44634540E-01 

3    0
S    3    1.000000
   3.42525091E+00    1.54328970E-01 
   6.23913730E-01    5.35328140E-01 
   1.68855400E-01    4.44634540E-01 

[MO]
Sym=X
Ene= -20.956432
Spin=Alpha
Occup=1
     1    9.944618961906e-01
     2    2.468891049617e-02
     3    9.971169731258e-17
     4    2.880451116855e-17
     5   -2.949485857678e-03
     6   -5.208326529798e-03
     7   -5.208326529798e-03
Sym=X
Ene= -1.822743
Spin=Alpha
Occup=1
     1   -2.366631760654e-01
     2    8.724545673526e-01
     3    2.364141002944e-15
     4   -2.622869498572e-16
     5   -1.758294170102e-01
     6    1.260083797182e-01
     7    1.260083797182e-01
Sym=X
Ene= -1.149860
Spin=Alpha
Occup=1
     1    1.806434367850e-15
     2   -3.631783437336e-15
     3    7.112790078491e-01
     4    1.457969477281e-17
     5    3.501420045762e-16
     6   -3.468100584544e-01
     7    3.468100584544e-01
Sym=X
Ene= -0.972443
Spin=Alpha
Occup=1
     1   -5.658827740364e-16
     2   -3.056176164644e-16
     3   -1.390186537144e-18
     4    1.000000000000e+00
     5   -8.137414923994e-16
     6    3.745188385748e-16
     7    2.771952887746e-16
Sym=X
Ene= -1.135399
Spin=Alpha
Occup=1
     1   -9.092583330597e-02
     2    4.348884555646e-01
     3    3.882835130919e-16
     4    1.822116337965e-15
     5    8.620183470451e-01
     6   -1.806390149155e-01
     7   -1.806390149155e-01
Sym=X
Ene= 0.074887
Spin=Alpha
Occup=0
     1   -1.284700799717e-01
     2    8.460322459306e-01
     3   -5.944624018113e-15
     4    6.333326644853e-17
     5   -6.021929548837e-01
     6   -8.114956728004e-01
     7   -8.114956728004e-01
Sym=X
Ene= 0.181110
Spin=Alpha
Occup=0
     1   -8.555808298530e-16
     2    5.381124527873e-15
     3    9.029555117380e-01
     4   -1.196153935113e-17
     5   -3.821196457474e-15
     6    8.486584784831e-01
     7   -8.486584784831e-01

======= END OF MOLDEN-FORMATTED INPUT FILE =======


        *************************************************************
        *                                                           *
        *  Thank you very much for using Q-Chem.  Have a nice day.  *
        *                                                           *
        *************************************************************


