                  Welcome to Q-Chem
     A Quantum Leap Into The Future Of Chemistry


 Q-Chem 6.0 (devel), Q-Chem, Inc., Pleasanton, CA (2022)

 E. Epifanovsky,  A. T. B. Gilbert,  Xintian Feng,  Joonho Lee,  Yuezhi Mao,  
 N. Mardirossian,  P. Pokhilko,  A. White,  M. Wormit,  M. P. Coons,  
 A. L. Dempwolff,  Zhengting Gan,  D. Hait,  P. R. Horn,  L. D. Jacobson,  
 I. Kaliman,  J. Kussmann,  A. W. Lange,  Ka Un Lao,  D. S. Levine,  Jie Liu,  
 S. C. McKenzie,  A. F. Morrison,  K. Nanda,  F. Plasser,  D. R. Rehn,  
 M. L. Vidal,  Zhi-Qiang You,  Ying Zhu,  B. Alam,  B. Albrecht,  
 A. Aldossary,  E. Alguire,  J. H. Andersen,  V. Athavale,  D. Barton,  
 K. Begam,  A. Behn,  N. Bellonzi,  Y. A. Bernard,  E. J. Berquist,  
 H. Burton,  A. Carreras,  K. Carter-Fenk,  Romit Chakraborty,  
 Chandrima Chakravarty,  Junhan Chen,  A. D. Chien,  K. D. Closser,  
 V. Cofer-Shabica,  L. Cunha,  S. Dasgupta,  Jia Deng,  M. de Wergifosse,  
 M. Diedenhofen,  Hainam Do,  S. Ehlert,  Po-Tung Fang,  S. Fatehi,  
 Qingguo Feng,  T. Friedhoff,  B. Ganoe,  J. Gayvert,  Qinghui Ge,  
 G. Gidofalvi,  M. Goldey,  J. Gomes,  C. Gonzalez-Espinoza,  S. Gulania,  
 A. Gunina,  J. A. Gyamfi,  M. W. D. Hanson-Heine,  P. H. P. Harbach,  
 A. W. Hauser,  M. F. Herbst,  M. Hernandez Vera,  M. Hodecker,  
 Z. C. Holden,  S. Houck,  Xunkun Huang,  Kerwin Hui,  B. C. Huynh,  
 K. Ikeda,  M. Ivanov,  Hyunjun Ji,  Zuxin Jin,  Hanjie Jiang,  B. Kaduk,  
 S. Kaehler,  R. Kang,  K. Khistyaev,  Jaehoon Kim,  Yongbin Kim,  
 P. Klunzinger,  Z. Koczor-Benda,  Joong Hoon Koh,  D. Kosenkov,  
 Saikiran Kotaru,  L. Koulias,  T. Kowalczyk,  C. M. Krauter,  K. Kue,  
 A. Kunitsa,  T. Kus,  A. Landau,  K. V. Lawler,  D. Lefrancois,  S. Lehtola,  
 Rain Li,  Shaozhi Li,  Yi-Pei Li,  Jiashu Liang,  M. Liebenthal,  
 Hung-Hsuan Lin,  You-Sheng Lin,  Fenglai Liu,  Kuan-Yu Liu,  
 M. Loipersberger,  A. Luenser,  C. Malbon,  A. Manjanath,  P. Manohar,  
 E. Mansoor,  S. F. Manzer,  Shan-Ping Mao,  A. V. Marenich,  T. Markovich,  
 S. Mason,  F. Matz,  S. A. Maurer,  P. F. McLaughlin,  M. F. S. J. Menger,  
 J.-M. Mewes,  S. A. Mewes,  P. Morgante,  Mohammad Mostafanejad,  
 J. W. Mullinax,  K. J. Oosterbaan,  G. Paran,  V. Parravicini,  
 Alexander C. Paul,  Suranjan K. Paul,  F. Pavosevic,  Zheng Pei,  S. Prager,  
 E. I. Proynov,  E. Ramos,  B. Rana,  A. E. Rask,  A. Rettig,  R. M. Richard,  
 F. Rob,  E. Rossomme,  T. Scheele,  M. Scheurer,  M. Schneider,  
 P. E. Schneider,  N. Sergueev,  S. M. Sharada,  Hengyuan Shen,  
 W. Skomorowski,  D. W. Small,  C. J. Stein,  Yingli Su,  Yu-Chuan Su,  
 E. J. Sundstrom,  Zhen Tao,  J. Thirman,  Hung-Yi Tsai,  T. Tsuchimochi,  
 N. M. Tubman,  C. Utku,  S. P. Veccham,  O. Vydrov,  J. Wenzel,  
 Jonathan Wong,  J. Witte,  A. Yamada,  Chou-Hsun Yang,  Kun Yao,  
 S. Yeganeh,  S. R. Yost,  A. Zech,  F. Zeller,  Igor Ying Zhang,  
 Xing Zhang,  Yu Zhang,  D. Zuev,  A. Aspuru-Guzik,  A. T. Bell,  
 N. A. Besley,  K. B. Bravaya,  B. R. Brooks,  D. Casanova,  Jeng-Da Chai,  
 Hsing-Ta Chen,  S. Coriani,  C. J. Cramer,  A. E. DePrince, III,  
 R. A. DiStasio Jr.,  A. Dreuw,  B. D. Dunietz,  T. R. Furlani,  
 W. A. Goddard III,  S. Grimme,  S. Hammes-Schiffer,  T. Head-Gordon,  
 W. J. Hehre,  Chao-Ping Hsu,  T.-C. Jagau,  Yousung Jung,  A. Klamt,  
 Jing Kong,  D. S. Lambrecht,  Xiangyuan Li,  WanZhen Liang,  N. J. Mayhall,  
 C. W. McCurdy,  J. B. Neaton,  T. Neudecker,  C. Ochsenfeld,  
 J. A. Parkhill,  R. Peverati,  V. A. Rassolov,  Haisheng Ren,  Yihan Shao,  
 L. V. Slipchenko,  R. P. Steele,  J. E. Subotnik,  A. J. W. Thom,  
 A. Tkatchenko,  D. G. Truhlar,  T. Van Voorhis,  Fan Wang,  
 T. A. Wesolowski,  K. B. Whaley,  H. L. Woodcock III,  P. M. Zimmerman,  
 S. Faraji,  P. M. W. Gill,  M. Head-Gordon,  J. M. Herbert,  A. I. Krylov

 Contributors to earlier versions of Q-Chem not listed above: 
 R. D. Adamson,  B. Austin,  R. Baer,  J. Baker,  G. J. O. Beran,  
 K. Brandhorst,  S. T. Brown,  E. F. C. Byrd,  Arup K. Chakraborty,  
 G. K. L. Chan,  Chun-Min Chang,  Yunqing Chen,  C.-L. Cheng,  
 Siu Hung Chien,  D. M. Chipman,  D. L. Crittenden,  H. Dachsel,  
 R. J. Doerksen,  A. D. Dutoi,  R. G. Edgar,  J. Fosso-Tande,  
 L. Fusti-Molnar,  D. Ghosh,  A. Ghysels,  A. Golubeva-Zadorozhnaya,  
 J. Gonthier,  M. S. Gordon,  S. R. Gwaltney,  G. Hawkins,  J. E. Herr,  
 A. Heyden,  S. Hirata,  E. G. Hohenstein,  G. Kedziora,  F. J. Keil,  
 C. Kelley,  Jihan Kim,  R. A. King,  R. Z. Khaliullin,  P. P. Korambath,  
 W. Kurlancheek,  A. Laurent,  A. M. Lee,  M. S. Lee,  S. V. Levchenko,  
 Ching Yeh Lin,  D. Liotard,  E. Livshits,  R. C. Lochan,  I. Lotan,  
 L. A. Martinez-Martinez,  P. E. Maslen,  N. Nair,  D. P. O'Neill,  
 D. Neuhauser,  E. Neuscamman,  C. M. Oana,  R. Olivares-Amaya,  R. Olson,  
 T. M. Perrine,  B. Peters,  P. A. Pieniazek,  A. Prociuk,  Y. M. Rhee,  
 J. Ritchie,  M. A. Rohrdanz,  E. Rosta,  N. J. Russ,  H. F. Schaefer III,  
 M. W. Schmidt,  N. E. Schultz,  S. Sharma,  N. Shenvi,  C. D. Sherrill,  
 A. C. Simmonett,  A. Sodt,  T. Stein,  D. Stuck,  K. S. Thanthiriwatte,  
 V. Vanovschi,  L. Vogt,  Tao Wang,  A. Warshel,  M. A. Watson,  
 C. F. Williams,  Q. Wu,  X. Xu,  Jun Yang,  W. Zhang,  Yan Zhao

   Please cite Q-Chem as follows:
  "Software for the frontiers of quantum chemistry:
   An overview of developments in the Q-Chem 5 package"
   J. Chem. Phys. 155, 084801 (2021)
   https://doi.org/10.1063/5.0055522 (open access)

 Q-Chem 6.0.1 for Intel X86 EM64T Linux

 Parts of Q-Chem use Armadillo 9.900.5 (Nocturnal Misbehaviour).
 http://arma.sourceforge.net/

 Q-Chem begins on Tue Apr 16 08:29:03 2024  

 Host: atlas-333
0

     Scratch files written to ./qchem337664//
 Processing $rem in /scratch/abel/SOFTWARE/qchem/config/preferences:
 Processing $rem in /dipc/acebg/.qchemrc:

 Checking the input file for inconsistencies... 	...done.

--------------------------------------------------------------
User input:
--------------------------------------------------------------
$comment
 RAS-SF CALCULATION
$end

$molecule
READ C94H40B4_singlet.molecule
$end

$rem
!**CALCULATION TYPE***     
JOBTYPE            sp    
EXCHANGE           HF
CORRELATION        RASCI    !RASCI=Casanova; RASCI2=Zimmerman
BASIS              6-31G*

!***SCF REFERENCE***
!SKIP_SCFMAN        FALSE
UNRESTRICTED       FALSE
!SCF_GUESS          core
!SCF_GUESS_MIX      FALSE
!SCF_GUESS_ALWAYS   FALSE
MAX_SCF_CYCLES      999
SCF_CONVERGENCE    10
SCF_ALGORITHM      DIIS_GDM !DIIS,DM,DIIS_DM,GDM,DIIS_GDM,GD

!SYMMETRY           TRUE   !use of symmetry for calculating integrals
!SYM_IGNORE         FALSE  !turn off using symmetry
!SYM_TOL            5      !tolerance for determining point group
!USE_ABELIAN_SUBGROUP      !define to use abelian group

!THRESH             14
!SCF_FINAL_PRINT     1 !0,1,2,3

!****RAS-SF****
RAS_ROOTS          20       !number of RAS-CI roots to be computed
SET_ITER           150     !number of iterations in RASCI
RAS_ELEC 4
RAS_ELEC_ALPHA 3
RAS_ELEC_BETA 1

RAS_ACT 4
RAS_ACT_ORB [311, 312, 313, 314]
RAS_OCC 310
N_FROZEN_CORE      FC     !Number of frozen core orbitals
N_FROZEN_VIRTUAL   0      !Number of frozen virtual orbitals

!RAS_DO_HOLE        TRUE   !presence of hole excitations in RAS-CI wave function
!RAS_DO_PART        TRUE   !presence of particle excitations
!RAS_AMPL_PRINT     10     !threshold (×10 2 ) for the CI amplitudes

!RAS_GUESS_CS       0      !number of closed shell guess conﬁgurations
!RAS_SPIN_MULT      0      !spin multiplicity. Only for Ms = 0 
!RAS_SRDFT          FALSE  !short-range density functional RAS-CI
!RAS_NFRAG          0     !fragments of excitation analysis in RASCI

RAS_PRINT          2      !level of information
!RAS_NATORB         TRUE   !computation of the natural orbital occupancies
!RAS_NATORB_STATE  0      !Saves NO of i RAS computed state in .fchk ﬁle
!RAS_FOD            TRUE

!****RAS-SOC****
CALC_SOC           TRUE   !calculate SOC for EOM-CC, RAS-CI, ADC, TDDFT/TDA and TDDFT
!RAS_SOC_2E        TRUE   !two-electron mean-ﬁeld contribution, default=true
RAS_SOC_SYM_DENS   TRUE   !averaging of α and β densities

!****MEMORY****
MEM_TOTAL          60000 !Default 2000 MB
MEM_STATIC         20000  !Default 64 MB

!**Molecular Properties and Analysis **                                                                                          
!POP_MULLIKEN       TRUE   !Run Mulliken population analysis
!LOWDIN_POPULATION  TRUE   !Run Löwdin population analysis
GUI                0       !Checkpoints generation
STATE_ANALYSIS     TRUE

!**Wave function analysis of RAS-CI states: MOLDEN**
!PLOTS = 0     ! Note: This can be omitted, default is 0
!NTO_PAIRS = 2 ! Note: This can be omitted, default is 2
!GUI 0
!MOLDEN_FORMAT      TRUE
!PRINT_ORBITALS     15

!**Wave function analysis of RAS-CI state: CUBE**
!NTO_PAIRS = 2 ! Note: This can be omitted, default is 2
!PLOTS = 1
!GUI 0

!**SR-DFT**
!RAS_SRDFT           TRUE !Perform short-range density functional RAS-CI
!RAS_SRDFT_EXC       0 !EX functional. 0=HF. 
!RAS_SRDFT_ONLY_COR  TRUE !No use of EXC functional
!RAS_SRDFT_COR       srPBE !short-range correlation functional
!ras_srdft_0         TRUE !true: no iteration (one-shot); false: iteration
!RAS_OMEGA           400 !Coulomb range-separation parameter. def=400
!RAS_SRDFT_DAMP     0.5 !dumping factor. def=0.5
$end

!$plots
!   grid_points 100 100 100
!   grid_range  (-10,10) (-10,10) (-10,10)
!$end

--------------------------------------------------------------
 ----------------------------------------------------------------
             Standard Nuclear Orientation (Angstroms)
    I     Atom           X                Y                Z
 ----------------------------------------------------------------
    1      H      -1.1912040000    -3.3965950000     0.0000000000
    2      H      -1.1912040000     3.3965950000    -0.0000000000
    3      H       1.1912040000    -3.3965950000     0.0000000000
    4      H       1.1912040000     3.3965950000    -0.0000000000
    5      C      -1.4384720000    -1.2341400000     0.0000000000
    6      C      -1.4384720000     1.2341400000    -0.0000000000
    7      C      -0.6830760000    -2.4408540000     0.0000000000
    8      C      -0.7204070000     0.0000000000    -0.0000000000
    9      C      -0.6830760000     2.4408540000    -0.0000000000
   10      C       0.6830760000    -2.4408540000     0.0000000000
   11      C       0.7204070000    -0.0000000000     0.0000000000
   12      C       0.6830760000     2.4408540000    -0.0000000000
   13      C       1.4384720000    -1.2341400000     0.0000000000
   14      C       1.4384720000     1.2341400000    -0.0000000000
   15      C       7.1840750000    -1.2319760000     0.0000000000
   16      C       7.1840750000     1.2319760000    -0.0000000000
   17      C       7.9077430000     0.0000000000     0.0000000000
   18      C       7.9314970000    -2.4398100000     0.0000000000
   19      C       7.9314970000     2.4398100000    -0.0000000000
   20      H       7.4195740000    -3.3937210000     0.0000000000
   21      C       9.2990330000    -2.4466250000     0.0000000000
   22      C       9.3499420000    -0.0000000000     0.0000000000
   23      H       7.4195740000     3.3937210000    -0.0000000000
   24      C       9.2990330000     2.4466250000    -0.0000000000
   25      H       9.8058440000    -3.4028120000     0.0000000000
   26      C      10.0624120000    -1.2493800000     0.0000000000
   27      C      10.0624120000     1.2493800000    -0.0000000000
   28      H       9.8058440000     3.4028120000    -0.0000000000
   29      C      11.5053030000    -1.2528250000     0.0000000000
   30      C      11.5053030000     1.2528250000    -0.0000000000
   31      C      12.2638990000    -2.4754460000     0.0000000000
   32      C      12.1806610000     0.0000000000     0.0000000000
   33      C      12.2638990000     2.4754460000    -0.0000000000
   34      H      11.7290730000    -3.4200190000     0.0000000000
   35      C      13.6687220000    -2.5469880000     0.0000000000
   36      B      13.6821330000     0.0000000000     0.0000000000
   37      H      11.7290730000     3.4200190000    -0.0000000000
   38      C      13.6687220000     2.5469880000    -0.0000000000
   39      C      14.4234740000    -3.7784040000     0.0000000000
   40      C      14.4194190000    -1.3301420000     0.0000000000
   41      C      14.4194190000     1.3301420000    -0.0000000000
   42      C      14.4234740000     3.7784040000    -0.0000000000
   43      H      13.8900520000    -4.7269230000     0.0000000000
   44      C      15.7989000000    -3.7768380000     0.0000000000
   45      C      15.8189900000    -1.3366790000     0.0000000000
   46      C      15.8189900000     1.3366790000    -0.0000000000
   47      H      13.8900520000     4.7269230000    -0.0000000000
   48      C      15.7989000000     3.7768380000    -0.0000000000
   49      H      16.3327470000    -4.7248860000     0.0000000000
   50      C      16.5528620000    -2.5480540000     0.0000000000
   51      B      16.5632940000    -0.0000000000     0.0000000000
   52      C      16.5528620000     2.5480540000    -0.0000000000
   53      H      16.3327470000     4.7248860000    -0.0000000000
   54      C      17.9827870000    -2.4719430000     0.0000000000
   55      C      18.0849320000     0.0000000000     0.0000000000
   56      C      17.9827870000     2.4719430000    -0.0000000000
   57      H      18.5419700000    -3.4058240000     0.0000000000
   58      C      18.7108790000    -1.2731610000     0.0000000000
   59      C      18.7108790000     1.2731610000    -0.0000000000
   60      H      18.5419700000     3.4058240000    -0.0000000000
   61      H      19.7994540000    -1.3513280000     0.0000000000
   62      H      19.7994540000     1.3513280000    -0.0000000000
   63      H       3.1204110000    -3.3955820000     0.0000000000
   64      H       3.1204110000     3.3955820000    -0.0000000000
   65      H       5.5014750000    -3.3954230000     0.0000000000
   66      H       5.5014750000     3.3954230000    -0.0000000000
   67      C       2.8714700000    -1.2337830000     0.0000000000
   68      C       2.8714700000     1.2337830000    -0.0000000000
   69      C       3.6278020000    -2.4393180000     0.0000000000
   70      C       3.5891480000     0.0000000000     0.0000000000
   71      C       3.6278020000     2.4393180000    -0.0000000000
   72      C       4.9941880000    -2.4395000000     0.0000000000
   73      C       5.0299100000    -0.0000000000     0.0000000000
   74      C       4.9941880000     2.4395000000    -0.0000000000
   75      C       5.7496440000    -1.2328550000     0.0000000000
   76      C       5.7496440000     1.2328550000    -0.0000000000
   77      H     -18.5419700000    -3.4058240000     0.0000000000
   78      H     -18.5419700000     3.4058240000    -0.0000000000
   79      H     -16.3327470000    -4.7248860000     0.0000000000
   80      H     -16.3327470000     4.7248860000    -0.0000000000
   81      H     -13.8900520000    -4.7269230000     0.0000000000
   82      H     -13.8900520000     4.7269230000    -0.0000000000
   83      H     -11.7290730000    -3.4200190000     0.0000000000
   84      H     -11.7290730000     3.4200190000    -0.0000000000
   85      H      -9.8058440000    -3.4028120000     0.0000000000
   86      H      -9.8058440000     3.4028120000    -0.0000000000
   87      H      -7.4195740000    -3.3937210000     0.0000000000
   88      H      -7.4195740000     3.3937210000    -0.0000000000
   89      B     -16.5632940000     0.0000000000    -0.0000000000
   90      B     -13.6821330000     0.0000000000    -0.0000000000
   91      H     -19.7994540000    -1.3513280000     0.0000000000
   92      H     -19.7994540000     1.3513280000    -0.0000000000
   93      C     -18.7108790000    -1.2731610000     0.0000000000
   94      C     -18.7108790000     1.2731610000    -0.0000000000
   95      C     -17.9827870000    -2.4719430000     0.0000000000
   96      C     -18.0849320000     0.0000000000    -0.0000000000
   97      C     -17.9827870000     2.4719430000    -0.0000000000
   98      C     -16.5528620000    -2.5480540000     0.0000000000
   99      C     -16.5528620000     2.5480540000    -0.0000000000
  100      C     -15.7989000000    -3.7768380000     0.0000000000
  101      C     -15.8189900000    -1.3366790000     0.0000000000
  102      C     -15.8189900000     1.3366790000    -0.0000000000
  103      C     -15.7989000000     3.7768380000    -0.0000000000
  104      C     -14.4234740000    -3.7784040000     0.0000000000
  105      C     -14.4194190000    -1.3301420000     0.0000000000
  106      C     -14.4194190000     1.3301420000    -0.0000000000
  107      C     -14.4234740000     3.7784040000    -0.0000000000
  108      C     -13.6687220000    -2.5469880000     0.0000000000
  109      C     -13.6687220000     2.5469880000    -0.0000000000
  110      C     -12.2638990000    -2.4754460000     0.0000000000
  111      C     -12.1806610000     0.0000000000    -0.0000000000
  112      C     -12.2638990000     2.4754460000    -0.0000000000
  113      C     -11.5053030000    -1.2528250000     0.0000000000
  114      C     -11.5053030000     1.2528250000    -0.0000000000
  115      C     -10.0624120000    -1.2493800000     0.0000000000
  116      C     -10.0624120000     1.2493800000    -0.0000000000
  117      C      -9.2990330000    -2.4466250000     0.0000000000
  118      C      -9.3499420000     0.0000000000    -0.0000000000
  119      C      -9.2990330000     2.4466250000    -0.0000000000
  120      C      -7.9314970000    -2.4398100000     0.0000000000
  121      C      -7.9077430000     0.0000000000    -0.0000000000
  122      C      -7.9314970000     2.4398100000    -0.0000000000
  123      C      -7.1840750000    -1.2319760000     0.0000000000
  124      C      -7.1840750000     1.2319760000    -0.0000000000
  125      H      -5.5014750000    -3.3954230000     0.0000000000
  126      H      -5.5014750000     3.3954230000    -0.0000000000
  127      H      -3.1204110000    -3.3955820000     0.0000000000
  128      H      -3.1204110000     3.3955820000    -0.0000000000
  129      C      -5.7496440000    -1.2328550000     0.0000000000
  130      C      -5.7496440000     1.2328550000    -0.0000000000
  131      C      -4.9941880000    -2.4395000000     0.0000000000
  132      C      -5.0299100000     0.0000000000    -0.0000000000
  133      C      -4.9941880000     2.4395000000    -0.0000000000
  134      C      -3.6278020000    -2.4393180000     0.0000000000
  135      C      -3.5891480000     0.0000000000    -0.0000000000
  136      C      -3.6278020000     2.4393180000    -0.0000000000
  137      C      -2.8714700000    -1.2337830000     0.0000000000
  138      C      -2.8714700000     1.2337830000    -0.0000000000
 ----------------------------------------------------------------
 Molecular Point Group                 D2h   NOp =  8
 Largest Abelian Subgroup              D2h   NOp =  8
 Nuclear Repulsion Energy =       13259.88774179 hartrees
 There are      312 alpha and      312 beta electrons
 Requested basis set is 6-31G(d)
 There are 472 shells and 1550 basis functions

 Q-Chem warning in module libmdc/get_mega.C, line 167:

 Allowed MEM_STATIC has been capped at MEM_STATIC=8191.
 Reduce the value of MEM_STATIC to silence this warning.


 Total QAlloc Memory Limit  60000 MB
 Mega-Array Size      8007 MB
 MEM_STATIC part      8191 MB

 A cutoff of  1.0D-14 yielded  26983 shell pairs
 There are    321649 function pairs
 Smallest overlap matrix eigenvalue = 5.75E-05

 Scale SEOQF with 1.000000e-03/1.000000e-01/1.000000e+00

 Standard Electronic Orientation quadrupole field applied
 Nucleus-field energy     =     0.0000002343 hartrees
 Guess from superposition of atomic densities
 Warning:  Energy on first SCF cycle will be non-variational
 SAD guess density has 624.000002 electrons

 -----------------------------------------------------------------------
  General SCF calculation program by
  Eric Jon Sundstrom, Paul Horn, Yuezhi Mao, Dmitri Zuev, Alec White,
  David Stuck, Shaama M.S., Shane Yost, Joonho Lee, David Small,
  Daniel Levine, Susi Lehtola, Hugh Burton, Evgeny Epifanovsky,
  Bang C. Huynh
 -----------------------------------------------------------------------
 Hartree-Fock
 A restricted SCF calculation will be
 performed using DIIS, GDM
 SCF converges when RMS gradient is below 1.0e-10
 ---------------------------------------
  Cycle       Energy         DIIS error
 ---------------------------------------
    1   -3730.2880808580      2.22e-02  
    2   -3680.2197470619      1.72e-03  Done DIIS. Switching to GDM
 ---------------------------------------
  Cycle       Energy        RMS Gradient
 ---------------------------------------
    1   -3680.2197470619      2.40e-01   Descent step
    2   -3680.9258614907      1.15e-01   Descent step
    3   -3681.3618832772      3.89e-02   Descent step
    4   -3681.6263583636      1.92e-02   Dog-leg BFGS step
    5   -3681.7343682760      1.41e-02   Normal BFGS step
    6   -3681.7393918772      9.56e-03   Normal BFGS step
    7   -3681.7405108389      6.13e-03   Normal BFGS step
    8   -3681.7413938382      1.58e-03   Normal BFGS step
    9   -3681.7415886039      9.99e-04   Normal BFGS step
   10   -3681.7416315506      5.98e-04   Normal BFGS step
   11   -3681.7416469473      3.28e-04   Normal BFGS step
   12   -3681.7416510527      9.07e-05   Normal BFGS step
   13   -3681.7416515645      8.26e-05   Normal BFGS step
   14   -3681.7416517423      3.45e-05   Normal BFGS step
   15   -3681.7416517843      2.50e-05   Normal BFGS step
   16   -3681.7416517956      1.06e-05   Normal BFGS step
   17   -3681.7416518000      5.05e-06   Normal BFGS step
   18   -3681.7416518014      3.85e-06   Normal BFGS step
   19   -3681.7416518016      1.49e-06   Normal BFGS step
   20   -3681.7416518016      3.63e-07   Normal BFGS step
   21   -3681.7416518017      1.77e-07   Normal BFGS step
   22   -3681.7416518016      6.78e-08   Normal BFGS step
   23   -3681.7416518016      2.48e-08   Normal BFGS step
   24   -3681.7416518016      1.62e-08   Normal BFGS step
   25   -3681.7416518017      3.48e-09   Normal BFGS step
   26   -3681.7416518017      2.28e-09   Normal BFGS step
  GDM::WARNING energy changes are now smaller than effective accuracy.
  GDM::        calculation will continue, but THRESH should be increased
  GDM::        or SCF_CONVERGENCE decreased. 
  GDM::        effective_thresh = 3.86e-08
   27   -3681.7416518017      9.47e-10   Normal BFGS step
  GDM::WARNING energy changes are now smaller than effective accuracy.
  GDM::        calculation will continue, but THRESH should be increased
  GDM::        or SCF_CONVERGENCE decreased. 
  GDM::        effective_thresh = 3.86e-08
   28   -3681.7416518016      3.32e-10   Normal BFGS step
   29   -3681.7416518016      1.54e-10   Normal BFGS step
  GDM::WARNING energy changes are now smaller than effective accuracy.
  GDM::        calculation will continue, but THRESH should be increased
  GDM::        or SCF_CONVERGENCE decreased. 
  GDM::        effective_thresh = 3.86e-08
   30   -3681.7416518016      9.68e-11  Convergence criterion met
 ---------------------------------------
 SCF time:   CPU 2377.68s  wall 2387.00s 
 SCF   energy in the final basis set =    -3681.7416518016
 Total energy in the final basis set =    -3681.7416518016

 Q-Chem warning in module 0, line  204:

 Quadrupole field failed to resolve orbital degeneracies.


 Q-Chem warning in module 0, line  204:

 Quadrupole field failed to resolve orbital degeneracies.

  
     ##========================================##
     ||                                        ||
     ||              R A S M A N 2             ||
     ||________________________________________||
     ||                                        ||
     ||  Author:                               ||
     ||                                        ||
     ||        David Casanova (2010)           ||
     ||                                        ||
     ##========================================##
  
Setting single-point xc-functionals (if necessary)

  ***************************************************
  *  RAS-CI Dimensions:                             *
  *                                                 *
  *  Active Elec.:   4 ( 3, 1)   Active Orb.:   4   *
  *  Doubly Occ. : 310           Doubly Vir.: 1236   *
  *  Frozen Occ. :  98           Frozen Vir.:   0   *
  *                                                 *
  *  Total CI configurations:     40560             * 
  *    Active configurations:        16             * 
  *      Hole configurations:      5936             * 
  *  Particle configurations:     34608             * 
  *                                                 *
  *   Requested states:       20                    *
  *  Spin multiplicity: Any multiplicity            *
  *                                                 *
  ***************************************************
-----------------------------------------
    Memory requirements of RASCI

 Each CI-vector requires      0.31 MiB 
 Max. subspace vectors           3000      

 Reduced Lists                0.00 MiB 
 Excitation Lists             0.00 MiB 
 Excitation Lists Sign        0.00 MiB 
 CI-space (Max)            1003.22 MiB 
 Integrals                  432.84 MiB 
 Memory required (Max)     1003.22 MiB 
 Memory available          7811.55 MiB 

    Disk requirements of RASCI

 Fock matrix                 36.66 MiB 
 2-electron integrals       833.28 MiB 
 CI-space                  1856.69 MiB 
 Disk required             2726.63 MiB 
-----------------------------------------
  
RAS1 HF-like energy:          -3680.6203604545
 Computing integrals
 Computing J and K matrices
 Computing addressing
 Making amplitude guesses
 
Direct CI diagonalization
 ---------------------------------------------------
 Iter    Rts Conv    Rts Left    Ttl Dev     Max Dev
 ---------------------------------------------------
   1         0          20      0.007179    0.000662
   2         0          20      0.003815    0.000281
   3         0          20      0.002750    0.000219
   4         0          20      0.003825    0.000583
   5         0          20      0.002449    0.000459
   6         0          20      0.002261    0.000318
   7         0          20      0.002013    0.000429
   8         0          20      0.001396    0.000293
   9         0          20      0.000838    0.000188
  10         3          17      0.000590    0.000174
  11         7          13      0.000440    0.000162
  12         7          13      0.000333    0.000120
  13         7          13      0.000354    0.000145
  14         9          11      0.000338    0.000122
  15        12           8      0.000227    0.000085
  16        13           7      0.000144    0.000050
  17        14           6      0.000103    0.000040
  18        15           5      0.000075    0.000035
  19        15           5      0.000055    0.000025
  20        15           5      0.000040    0.000020
  21        16           4      0.000030    0.000014
  22        18           2      0.000026    0.000014
  23        18           2      0.000024    0.000014
  24        18           2      0.000023    0.000014
  25        19           1      0.000018    0.000011
  26        19           1      0.000015    0.000007
  27        19           1      0.000012    0.000005
  28        19           1      0.000012    0.000004
  29        19           1      0.000010    0.000002
  30        19           1      0.000009    0.000001
  31        20           0      0.000008    0.000001    Roots Converged
 ---------------------------------------------------
   
**************************************************
 RAS-CI total energy for state   1:  -3681.828943031748
  Excitation energy (eV) =  0.000000000000
  State symmetry: B3u   (D2h      )
  <S^2>      :  2.0000
  Dipole Moment:    0.0000 X    -0.0000 Y    -0.0000 Z
 NATURAL OCCUPATION NUMBERS (higher than 1.0E-05)
            1           2           3           4           5           6
    1   2.0000000   2.0000000   2.0000000   2.0000000   2.0000000   2.0000000
            7           8           9          10          11          12
    1   2.0000000   2.0000000   2.0000000   2.0000000   2.0000000   2.0000000
           13          14          15          16          17          18
    1   2.0000000   2.0000000   2.0000000   2.0000000   2.0000000   2.0000000
           19          20          21          22          23          24
    1   2.0000000   2.0000000   2.0000000   2.0000000   2.0000000   2.0000000
           25          26          27          28          29          30
    1   2.0000000   2.0000000   2.0000000   2.0000000   2.0000000   2.0000000
           31          32          33          34          35          36
    1   2.0000000   2.0000000   2.0000000   2.0000000   2.0000000   2.0000000
           37          38          39          40          41          42
    1   2.0000000   2.0000000   2.0000000   2.0000000   2.0000000   2.0000000
           43          44          45          46          47          48
    1   2.0000000   2.0000000   2.0000000   2.0000000   2.0000000   2.0000000
           49          50          51          52          53          54
    1   2.0000000   2.0000000   2.0000000   2.0000000   2.0000000   2.0000000
           55          56          57          58          59          60
    1   2.0000000   2.0000000   2.0000000   2.0000000   2.0000000   2.0000000
           61          62          63          64          65          66
    1   2.0000000   2.0000000   2.0000000   2.0000000   2.0000000   2.0000000
           67          68          69          70          71          72
    1   2.0000000   2.0000000   2.0000000   2.0000000   2.0000000   2.0000000
           73          74          75          76          77          78
    1   2.0000000   2.0000000   2.0000000   2.0000000   2.0000000   2.0000000
           79          80          81          82          83          84
    1   2.0000000   2.0000000   2.0000000   2.0000000   2.0000000   2.0000000
           85          86          87          88          89          90
    1   2.0000000   2.0000000   2.0000000   2.0000000   2.0000000   2.0000000
           91          92          93          94          95          96
    1   2.0000000   2.0000000   2.0000000   2.0000000   2.0000000   2.0000000
           97          98          99         100         101         102
    1   2.0000000   2.0000000   2.0000000   2.0000000   2.0000000   2.0000000
          103         104         105         106         107         108
    1   2.0000000   2.0000000   2.0000000   2.0000000   2.0000000   2.0000000
          109         110         111         112         113         114
    1   2.0000000   2.0000000   2.0000000   2.0000000   2.0000000   2.0000000
          115         116         117         118         119         120
    1   2.0000000   2.0000000   2.0000000   2.0000000   2.0000000   2.0000000
          121         122         123         124         125         126
    1   2.0000000   2.0000000   2.0000000   2.0000000   2.0000000   2.0000000
          127         128         129         130         131         132
    1   2.0000000   2.0000000   2.0000000   2.0000000   2.0000000   2.0000000
          133         134         135         136         137         138
    1   2.0000000   2.0000000   2.0000000   2.0000000   2.0000000   2.0000000
          139         140         141         142         143         144
    1   2.0000000   2.0000000   2.0000000   2.0000000   2.0000000   2.0000000
          145         146         147         148         149         150
    1   2.0000000   2.0000000   2.0000000   2.0000000   2.0000000   2.0000000
          151         152         153         154         155         156
    1   2.0000000   2.0000000   2.0000000   2.0000000   2.0000000   2.0000000
          157         158         159         160         161         162
    1   2.0000000   2.0000000   2.0000000   2.0000000   2.0000000   2.0000000
          163         164         165         166         167         168
    1   2.0000000   2.0000000   2.0000000   2.0000000   2.0000000   2.0000000
          169         170         171         172         173         174
    1   2.0000000   2.0000000   2.0000000   2.0000000   2.0000000   2.0000000
          175         176         177         178         179         180
    1   2.0000000   2.0000000   2.0000000   2.0000000   2.0000000   2.0000000
          181         182         183         184         185         186
    1   2.0000000   2.0000000   2.0000000   2.0000000   2.0000000   2.0000000
          187         188         189         190         191         192
    1   2.0000000   2.0000000   2.0000000   2.0000000   2.0000000   2.0000000
          193         194         195         196         197         198
    1   2.0000000   2.0000000   2.0000000   2.0000000   2.0000000   2.0000000
          199         200         201         202         203         204
    1   2.0000000   2.0000000   2.0000000   2.0000000   2.0000000   2.0000000
          205         206         207         208         209         210
    1   2.0000000   2.0000000   2.0000000   2.0000000   2.0000000   2.0000000
          211         212         213         214         215         216
    1   2.0000000   2.0000000   2.0000000   2.0000000   2.0000000   2.0000000
          217         218         219         220         221         222
    1   2.0000000   2.0000000   2.0000000   2.0000000   2.0000000   2.0000000
          223         224         225         226         227         228
    1   2.0000000   2.0000000   2.0000000   2.0000000   2.0000000   2.0000000
          229         230         231         232         233         234
    1   2.0000000   2.0000000   2.0000000   2.0000000   2.0000000   2.0000000
          235         236         237         238         239         240
    1   2.0000000   2.0000000   2.0000000   2.0000000   2.0000000   2.0000000
          241         242         243         244         245         246
    1   2.0000000   2.0000000   2.0000000   2.0000000   2.0000000   2.0000000
          247         248         249         250         251         252
    1   2.0000000   2.0000000   2.0000000   2.0000000   2.0000000   2.0000000
          253         254         255         256         257         258
    1   2.0000000   2.0000000   2.0000000   2.0000000   2.0000000   2.0000000
          259         260         261         262         263         264
    1   2.0000000   2.0000000   2.0000000   2.0000000   2.0000000   2.0000000
          265         266         267         268         269         270
    1   2.0000000   2.0000000   2.0000000   2.0000000   2.0000000   2.0000000
          271         272         273         274         275         276
    1   2.0000000   2.0000000   2.0000000   2.0000000   2.0000000   2.0000000
          277         278         279         280         281         282
    1   2.0000000   2.0000000   2.0000000   2.0000000   2.0000000   2.0000000
          283         284         285         286         287         288
    1   2.0000000   2.0000000   2.0000000   2.0000000   2.0000000   2.0000000
          289         290         291         292         293         294
    1   2.0000000   2.0000000   2.0000000   2.0000000   2.0000000   2.0000000
          295         296         297         298         299         300
    1   1.9999997   1.9999997   1.9999988   1.9999988   1.9999965   1.9999771
          301         302         303         304         305         306
    1   1.9999719   1.9999602   1.9999456   1.9998773   1.9997708   1.9997476
          307         308         309         310         311         312
    1   1.9984743   1.9984617   1.9976942   1.9584194   1.7470175   0.9998182
          313         314         315         316         317         318
    1   0.9993482   0.2458396   0.0458872   0.0048241   0.0021491   0.0021183
          319         320         321         322         323         324
    1   0.0004130   0.0000931   0.0000739   0.0000736   0.0000228   0.0000217

 Head-Gordon Nu:    2.60
 Head-Gordon Nu_nl: 2.40
 Created directory ./qchem337664/plots

  Amplitudes : 
  
 | HOLE  | ALPHA | BETA  | PART  |    AMPLITUDE 
--------------------------------------------------
 |       | 1110  | 0010  |       |     7.4454069135421E-01
 |       | 1101  | 0001  |       |    -2.2230420032020E-01
 |       | 1011  | 1000  |       |     1.7311412628437E-01
 |       | 0111  | 0100  |       |    -1.7265019895122E-01
 | 306   | 1111  | 0010  |       |     1.0318930555902E-01
 | 308   | 1111  | 0010  |       |    -2.6187218684426E-01
 | 308   | 1110  | 0011  |       |    -2.2110998615515E-01
 |       | 1100  | 0010  | 315   |    -2.8564955033627E-01
 |       | 1110  | 0000  | 315   |    -2.2897881909079E-01
--------------------------------------------------
*** Contributions RASCI wfn    Active:  66.35
                                 Hole:  15.38
                                 Part:  18.27

      Mulliken population analysis 
 ---------------------------------------------------
   Atom    Charge (a.u.)   Spin (a.u.)  
 ---------------------------------------------------
   1  H    0.240279       -0.000000 
   2  H    0.240279       -0.000000 
   3  H    0.240279       -0.000000 
   4  H    0.240279       -0.000000 
   5  C   -0.002810       -0.001471 
   6  C   -0.002810       -0.001471 
   7  C   -0.203016       -0.000598 
   8  C   -0.049918        0.000156 
   9  C   -0.203016       -0.000598 
  10  C   -0.203016       -0.000598 
  11  C   -0.049918        0.000156 
  12  C   -0.203016       -0.000598 
  13  C   -0.002810       -0.001471 
  14  C   -0.002810       -0.001471 
  15  C    0.002879        0.007045 
  16  C    0.002879        0.007045 
  17  C   -0.068522        0.000586 
  18  C   -0.227741       -0.000767 
  19  C   -0.227741       -0.000767 
  20  H    0.223690       -0.000000 
  21  C   -0.203507        0.005551 
  22  C   -0.037167        0.012589 
  23  H    0.223690       -0.000000 
  24  C   -0.203507        0.005551 
  25  H    0.250595       -0.000000 
  26  C    0.015807        0.000473 
  27  C    0.015807        0.000473 
  28  H    0.250595       -0.000000 
  29  C   -0.010875        0.028722 
  30  C   -0.010875        0.028722 
  31  C   -0.251925        0.048405 
  32  C   -0.046005        0.023276 
  33  C   -0.251925        0.048405 
  34  H    0.187439       -0.000000 
  35  C    0.010993        0.014698 
  36  B    0.242569        0.142863 
  37  H    0.187439       -0.000000 
  38  C    0.010993        0.014698 
  39  C   -0.198915        0.002948 
  40  C   -0.045248        0.063550 
  41  C   -0.045248        0.063550 
  42  C   -0.198915        0.002948 
  43  H    0.194021       -0.000000 
  44  C   -0.210971        0.002879 
  45  C   -0.098035        0.058193 
  46  C   -0.098035        0.058193 
  47  H    0.194021       -0.000000 
  48  C   -0.210971        0.002879 
  49  H    0.202263       -0.000000 
  50  C    0.049124        0.013926 
  51  B    0.312069        0.140517 
  52  C    0.049124        0.013926 
  53  H    0.202263       -0.000000 
  54  C   -0.258548        0.055554 
  55  C   -0.135731        0.041588 
  56  C   -0.258548        0.055554 
  57  H    0.168742       -0.000000 
  58  C   -0.135108        0.019901 
  59  C   -0.135108        0.019901 
  60  H    0.168742       -0.000000 
  61  H    0.182845       -0.000000 
  62  H    0.182845       -0.000000 
  63  H    0.233422       -0.000000 
  64  H    0.233422       -0.000000 
  65  H    0.246191       -0.000000 
  66  H    0.246191       -0.000000 
  67  C    0.008432        0.001164 
  68  C    0.008432        0.001164 
  69  C   -0.216012       -0.001537 
  70  C   -0.065584        0.000061 
  71  C   -0.216012       -0.001537 
  72  C   -0.197723        0.001789 
  73  C   -0.037106        0.001405 
  74  C   -0.197723        0.001789 
  75  C   -0.013590       -0.001945 
  76  C   -0.013590       -0.001945 
  77  H    0.168742       -0.000000 
  78  H    0.168742       -0.000000 
  79  H    0.202263       -0.000000 
  80  H    0.202263       -0.000000 
  81  H    0.194021       -0.000000 
  82  H    0.194021       -0.000000 
  83  H    0.187439       -0.000000 
  84  H    0.187439       -0.000000 
  85  H    0.250595       -0.000000 
  86  H    0.250595       -0.000000 
  87  H    0.223690       -0.000000 
  88  H    0.223690       -0.000000 
  89  B    0.312069        0.140517 
  90  B    0.242569        0.142863 
  91  H    0.182845       -0.000000 
  92  H    0.182845       -0.000000 
  93  C   -0.135108        0.019901 
  94  C   -0.135108        0.019901 
  95  C   -0.258548        0.055554 
  96  C   -0.135731        0.041588 
  97  C   -0.258548        0.055554 
  98  C    0.049124        0.013926 
  99  C    0.049124        0.013926 
 100  C   -0.210971        0.002879 
 101  C   -0.098035        0.058193 
 102  C   -0.098035        0.058193 
 103  C   -0.210971        0.002879 
 104  C   -0.198915        0.002948 
 105  C   -0.045248        0.063550 
 106  C   -0.045248        0.063550 
 107  C   -0.198915        0.002948 
 108  C    0.010993        0.014698 
 109  C    0.010993        0.014698 
 110  C   -0.251925        0.048405 
 111  C   -0.046005        0.023276 
 112  C   -0.251925        0.048405 
 113  C   -0.010875        0.028722 
 114  C   -0.010875        0.028722 
 115  C    0.015807        0.000473 
 116  C    0.015807        0.000473 
 117  C   -0.203507        0.005551 
 118  C   -0.037167        0.012589 
 119  C   -0.203507        0.005551 
 120  C   -0.227741       -0.000767 
 121  C   -0.068522        0.000586 
 122  C   -0.227741       -0.000767 
 123  C    0.002879        0.007045 
 124  C    0.002879        0.007045 
 125  H    0.246191       -0.000000 
 126  H    0.246191       -0.000000 
 127  H    0.233422       -0.000000 
 128  H    0.233422       -0.000000 
 129  C   -0.013590       -0.001945 
 130  C   -0.013590       -0.001945 
 131  C   -0.197723        0.001789 
 132  C   -0.037106        0.001405 
 133  C   -0.197723        0.001789 
 134  C   -0.216012       -0.001537 
 135  C   -0.065584        0.000061 
 136  C   -0.216012       -0.001537 
 137  C    0.008432        0.001164 
 138  C    0.008432        0.001164 
 ---------------------------------------------------
   Sum:    0.000000        2.000000 
 ---------------------------------------------------
 
*** Unpaired Electrons
 Yamaguchi Nd:         3.08
  
**************************************************
 RAS-CI total energy for state   2:  -3681.816035054485
  Excitation energy (eV) =  0.351243932058
  State symmetry: Ag    (D2h      )
  <S^2>      :  6.0000
  Dipole Moment:   -0.0000 X    -0.0000 Y    -0.0000 Z
  Trans. Moment:   -0.0000 X     0.0000 Y     0.0000 Z
  Strength   :  0.000000
  Natural transition orbitals ( 1 -> 2 ):
   e-/hole pair  1 alpha:  ampl =  0.439445 ( 19.3%)   [4 : 5]
   e-/hole pair  2 alpha:  ampl =  0.118995 (  1.4%)   [3 : 6]
   e-/hole pair  1 beta :  ampl =  0.439445 ( 19.3%)   [4 : 5]
   e-/hole pair  2 beta :  ampl =  0.118995 (  1.4%)   [3 : 6]
   Sum of square amplitudes: 0.46

 NATURAL OCCUPATION NUMBERS (higher than 1.0E-05)
            1           2           3           4           5           6
    1   2.0000000   2.0000000   2.0000000   2.0000000   2.0000000   2.0000000
            7           8           9          10          11          12
    1   2.0000000   2.0000000   2.0000000   2.0000000   2.0000000   2.0000000
           13          14          15          16          17          18
    1   2.0000000   2.0000000   2.0000000   2.0000000   2.0000000   2.0000000
           19          20          21          22          23          24
    1   2.0000000   2.0000000   2.0000000   2.0000000   2.0000000   2.0000000
           25          26          27          28          29          30
    1   2.0000000   2.0000000   2.0000000   2.0000000   2.0000000   2.0000000
           31          32          33          34          35          36
    1   2.0000000   2.0000000   2.0000000   2.0000000   2.0000000   2.0000000
           37          38          39          40          41          42
    1   2.0000000   2.0000000   2.0000000   2.0000000   2.0000000   2.0000000
           43          44          45          46          47          48
    1   2.0000000   2.0000000   2.0000000   2.0000000   2.0000000   2.0000000
           49          50          51          52          53          54
    1   2.0000000   2.0000000   2.0000000   2.0000000   2.0000000   2.0000000
           55          56          57          58          59          60
    1   2.0000000   2.0000000   2.0000000   2.0000000   2.0000000   2.0000000
           61          62          63          64          65          66
    1   2.0000000   2.0000000   2.0000000   2.0000000   2.0000000   2.0000000
           67          68          69          70          71          72
    1   2.0000000   2.0000000   2.0000000   2.0000000   2.0000000   2.0000000
           73          74          75          76          77          78
    1   2.0000000   2.0000000   2.0000000   2.0000000   2.0000000   2.0000000
           79          80          81          82          83          84
    1   2.0000000   2.0000000   2.0000000   2.0000000   2.0000000   2.0000000
           85          86          87          88          89          90
    1   2.0000000   2.0000000   2.0000000   2.0000000   2.0000000   2.0000000
           91          92          93          94          95          96
    1   2.0000000   2.0000000   2.0000000   2.0000000   2.0000000   2.0000000
           97          98          99         100         101         102
    1   2.0000000   2.0000000   2.0000000   2.0000000   2.0000000   2.0000000
          103         104         105         106         107         108
    1   2.0000000   2.0000000   2.0000000   2.0000000   2.0000000   2.0000000
          109         110         111         112         113         114
    1   2.0000000   2.0000000   2.0000000   2.0000000   2.0000000   2.0000000
          115         116         117         118         119         120
    1   2.0000000   2.0000000   2.0000000   2.0000000   2.0000000   2.0000000
          121         122         123         124         125         126
    1   2.0000000   2.0000000   2.0000000   2.0000000   2.0000000   2.0000000
          127         128         129         130         131         132
    1   2.0000000   2.0000000   2.0000000   2.0000000   2.0000000   2.0000000
          133         134         135         136         137         138
    1   2.0000000   2.0000000   2.0000000   2.0000000   2.0000000   2.0000000
          139         140         141         142         143         144
    1   2.0000000   2.0000000   2.0000000   2.0000000   2.0000000   2.0000000
          145         146         147         148         149         150
    1   2.0000000   2.0000000   2.0000000   2.0000000   2.0000000   2.0000000
          151         152         153         154         155         156
    1   2.0000000   2.0000000   2.0000000   2.0000000   2.0000000   2.0000000
          157         158         159         160         161         162
    1   2.0000000   2.0000000   2.0000000   2.0000000   2.0000000   2.0000000
          163         164         165         166         167         168
    1   2.0000000   2.0000000   2.0000000   2.0000000   2.0000000   2.0000000
          169         170         171         172         173         174
    1   2.0000000   2.0000000   2.0000000   2.0000000   2.0000000   2.0000000
          175         176         177         178         179         180
    1   2.0000000   2.0000000   2.0000000   2.0000000   2.0000000   2.0000000
          181         182         183         184         185         186
    1   2.0000000   2.0000000   2.0000000   2.0000000   2.0000000   2.0000000
          187         188         189         190         191         192
    1   2.0000000   2.0000000   2.0000000   2.0000000   2.0000000   2.0000000
          193         194         195         196         197         198
    1   2.0000000   2.0000000   2.0000000   2.0000000   2.0000000   2.0000000
          199         200         201         202         203         204
    1   2.0000000   2.0000000   2.0000000   2.0000000   2.0000000   2.0000000
          205         206         207         208         209         210
    1   2.0000000   2.0000000   2.0000000   2.0000000   2.0000000   2.0000000
          211         212         213         214         215         216
    1   2.0000000   2.0000000   2.0000000   2.0000000   2.0000000   2.0000000
          217         218         219         220         221         222
    1   2.0000000   2.0000000   2.0000000   2.0000000   2.0000000   2.0000000
          223         224         225         226         227         228
    1   2.0000000   2.0000000   2.0000000   2.0000000   2.0000000   2.0000000
          229         230         231         232         233         234
    1   2.0000000   2.0000000   2.0000000   2.0000000   2.0000000   2.0000000
          235         236         237         238         239         240
    1   2.0000000   2.0000000   2.0000000   2.0000000   2.0000000   2.0000000
          241         242         243         244         245         246
    1   2.0000000   2.0000000   2.0000000   2.0000000   2.0000000   2.0000000
          247         248         249         250         251         252
    1   2.0000000   2.0000000   2.0000000   2.0000000   2.0000000   2.0000000
          253         254         255         256         257         258
    1   2.0000000   2.0000000   2.0000000   2.0000000   2.0000000   2.0000000
          259         260         261         262         263         264
    1   2.0000000   2.0000000   2.0000000   2.0000000   2.0000000   2.0000000
          265         266         267         268         269         270
    1   2.0000000   2.0000000   2.0000000   2.0000000   2.0000000   2.0000000
          271         272         273         274         275         276
    1   2.0000000   2.0000000   2.0000000   2.0000000   2.0000000   2.0000000
          277         278         279         280         281         282
    1   2.0000000   2.0000000   2.0000000   2.0000000   2.0000000   2.0000000
          283         284         285         286         287         288
    1   2.0000000   2.0000000   2.0000000   2.0000000   2.0000000   2.0000000
          289         290         291         292         293         294
    1   2.0000000   2.0000000   2.0000000   2.0000000   2.0000000   2.0000000
          295         296         297         298         299         300
    1   2.0000000   2.0000000   2.0000000   2.0000000   2.0000000   2.0000000
          301         302         303         304         305         306
    1   2.0000000   2.0000000   2.0000000   2.0000000   2.0000000   2.0000000
          307         308         309         310         311         312
    1   1.9984624   1.9984466   1.9934353   1.9924400   0.9997249   0.9997075
          313         314         315         316         317         318
    1   0.9904107   0.9815030   0.0260570   0.0161539   0.0018459   0.0018127

 Head-Gordon Nu:    4.03
 Head-Gordon Nu_nl: 4.00

  Amplitudes : 
  
 | HOLE  | ALPHA | BETA  | PART  |    AMPLITUDE 
--------------------------------------------------
 |       | 1110  | 0001  |       |     4.1495725079349E-01
 |       | 1101  | 0010  |       |    -4.1495725079350E-01
 |       | 1011  | 0100  |       |     4.1495725079349E-01
 |       | 0111  | 1000  |       |    -4.1495725079349E-01
 |       | 0110  | 1000  | 316   |     1.1770758933142E-01
 |       | 0101  | 1000  | 315   |    -2.1131371366945E-01
 |       | 1010  | 0100  | 316   |    -1.1770758933142E-01
 |       | 1001  | 0100  | 315   |     2.1131371366945E-01
 |       | 1100  | 0010  | 316   |     1.1770758933142E-01
 |       | 1100  | 0001  | 315   |    -2.1131371366945E-01
 |       | 1110  | 0000  | 316   |    -1.1770758933142E-01
 |       | 1101  | 0000  | 315   |     2.1131371366945E-01
--------------------------------------------------
*** Contributions RASCI wfn    Active:  68.88
                                 Hole:   5.11
                                 Part:  26.01

      Mulliken population analysis 
 ---------------------------------------------------
   Atom    Charge (a.u.)   Spin (a.u.)  
 ---------------------------------------------------
   1  H    0.240279       -0.000000 
   2  H    0.240279       -0.000000 
   3  H    0.240279       -0.000000 
   4  H    0.240279       -0.000000 
   5  C    0.000391        0.010363 
   6  C    0.000391        0.010363 
   7  C   -0.198673        0.010576 
   8  C   -0.049975        0.000258 
   9  C   -0.198673        0.010576 
  10  C   -0.198673        0.010576 
  11  C   -0.049975        0.000258 
  12  C   -0.198673        0.010576 
  13  C    0.000391        0.010363 
  14  C    0.000391        0.010363 
  15  C    0.019085        0.026488 
  16  C    0.019085        0.026488 
  17  C   -0.068329        0.000679 
  18  C   -0.234738        0.002180 
  19  C   -0.234738        0.002180 
  20  H    0.223690       -0.000000 
  21  C   -0.192585        0.020262 
  22  C   -0.037208        0.006834 
  23  H    0.223690       -0.000000 
  24  C   -0.192585        0.020262 
  25  H    0.250595       -0.000000 
  26  C    0.002860        0.005453 
  27  C    0.002860        0.005453 
  28  H    0.250595       -0.000000 
  29  C   -0.000055        0.038296 
  30  C   -0.000055        0.038296 
  31  C   -0.268089        0.041808 
  32  C   -0.046043        0.013076 
  33  C   -0.268089        0.041808 
  34  H    0.187439       -0.000000 
  35  C    0.013753        0.021534 
  36  B    0.245831        0.078153 
  37  H    0.187439       -0.000000 
  38  C    0.013753        0.021534 
  39  C   -0.202331        0.007758 
  40  C   -0.055497        0.048384 
  41  C   -0.055497        0.048384 
  42  C   -0.202331        0.007758 
  43  H    0.194021       -0.000000 
  44  C   -0.210038        0.005871 
  45  C   -0.097731        0.033869 
  46  C   -0.097731        0.033869 
  47  H    0.194021       -0.000000 
  48  C   -0.210038        0.005871 
  49  H    0.202263       -0.000000 
  50  C    0.040738        0.025712 
  51  B    0.310073        0.075907 
  52  C    0.040738        0.025712 
  53  H    0.202263       -0.000000 
  54  C   -0.260374        0.031692 
  55  C   -0.138162        0.021986 
  56  C   -0.260374        0.031692 
  57  H    0.168742       -0.000000 
  58  C   -0.140600        0.027070 
  59  C   -0.140600        0.027070 
  60  H    0.168742       -0.000000 
  61  H    0.182845       -0.000000 
  62  H    0.182845       -0.000000 
  63  H    0.233422       -0.000000 
  64  H    0.233422       -0.000000 
  65  H    0.246191       -0.000000 
  66  H    0.246191       -0.000000 
  67  C    0.020182        0.019656 
  68  C    0.020182        0.019656 
  69  C   -0.217670        0.004229 
  70  C   -0.065477        0.000355 
  71  C   -0.217670        0.004229 
  72  C   -0.187180        0.016684 
  73  C   -0.037372        0.000761 
  74  C   -0.187180        0.016684 
  75  C   -0.017603        0.003109 
  76  C   -0.017603        0.003109 
  77  H    0.168742       -0.000000 
  78  H    0.168742       -0.000000 
  79  H    0.202263       -0.000000 
  80  H    0.202263       -0.000000 
  81  H    0.194021       -0.000000 
  82  H    0.194021       -0.000000 
  83  H    0.187439       -0.000000 
  84  H    0.187439       -0.000000 
  85  H    0.250595       -0.000000 
  86  H    0.250595       -0.000000 
  87  H    0.223690       -0.000000 
  88  H    0.223690       -0.000000 
  89  B    0.310073        0.075907 
  90  B    0.245831        0.078153 
  91  H    0.182845       -0.000000 
  92  H    0.182845       -0.000000 
  93  C   -0.140600        0.027070 
  94  C   -0.140600        0.027070 
  95  C   -0.260374        0.031692 
  96  C   -0.138162        0.021986 
  97  C   -0.260374        0.031692 
  98  C    0.040738        0.025712 
  99  C    0.040738        0.025712 
 100  C   -0.210038        0.005871 
 101  C   -0.097731        0.033869 
 102  C   -0.097731        0.033869 
 103  C   -0.210038        0.005871 
 104  C   -0.202331        0.007758 
 105  C   -0.055497        0.048384 
 106  C   -0.055497        0.048384 
 107  C   -0.202331        0.007758 
 108  C    0.013753        0.021534 
 109  C    0.013753        0.021534 
 110  C   -0.268089        0.041808 
 111  C   -0.046043        0.013076 
 112  C   -0.268089        0.041808 
 113  C   -0.000055        0.038296 
 114  C   -0.000055        0.038296 
 115  C    0.002860        0.005453 
 116  C    0.002860        0.005453 
 117  C   -0.192585        0.020262 
 118  C   -0.037208        0.006834 
 119  C   -0.192585        0.020262 
 120  C   -0.234738        0.002180 
 121  C   -0.068329        0.000679 
 122  C   -0.234738        0.002180 
 123  C    0.019085        0.026488 
 124  C    0.019085        0.026488 
 125  H    0.246191       -0.000000 
 126  H    0.246191       -0.000000 
 127  H    0.233422       -0.000000 
 128  H    0.233422       -0.000000 
 129  C   -0.017603        0.003109 
 130  C   -0.017603        0.003109 
 131  C   -0.187180        0.016684 
 132  C   -0.037372        0.000761 
 133  C   -0.187180        0.016684 
 134  C   -0.217670        0.004229 
 135  C   -0.065477        0.000355 
 136  C   -0.217670        0.004229 
 137  C    0.020182        0.019656 
 138  C    0.020182        0.019656 
 ---------------------------------------------------
   Sum:    0.000000        2.000000 
 ---------------------------------------------------
 
*** Unpaired Electrons
 Yamaguchi Nd:         4.12
  
**************************************************
 RAS-CI total energy for state   3:  -3681.805399664671
  Excitation energy (eV) =  0.640647613281
  State symmetry: B3u   (D2h      )
  <S^2>      :  2.0000
  Dipole Moment:    0.0000 X    -0.0000 Y    -0.0000 Z
  Trans. Moment:   -0.0000 X     0.0000 Y     0.0000 Z
  Strength   :  0.000000
  Natural transition orbitals ( 1 -> 3 ):
   e-/hole pair  1 alpha:  ampl =  0.277056 (  7.7%)   [4 : 5]
   e-/hole pair  2 alpha:  ampl =  0.134720 (  1.8%)   [3 : 6]
   e-/hole pair  1 beta :  ampl =  0.296229 (  8.8%)   [4 : 5]
   e-/hole pair  2 beta :  ampl =  0.135157 (  1.8%)   [3 : 6]
   Sum of square amplitudes: 0.24

 NATURAL OCCUPATION NUMBERS (higher than 1.0E-05)
            1           2           3           4           5           6
    1   2.0000000   2.0000000   2.0000000   2.0000000   2.0000000   2.0000000
            7           8           9          10          11          12
    1   2.0000000   2.0000000   2.0000000   2.0000000   2.0000000   2.0000000
           13          14          15          16          17          18
    1   2.0000000   2.0000000   2.0000000   2.0000000   2.0000000   2.0000000
           19          20          21          22          23          24
    1   2.0000000   2.0000000   2.0000000   2.0000000   2.0000000   2.0000000
           25          26          27          28          29          30
    1   2.0000000   2.0000000   2.0000000   2.0000000   2.0000000   2.0000000
           31          32          33          34          35          36
    1   2.0000000   2.0000000   2.0000000   2.0000000   2.0000000   2.0000000
           37          38          39          40          41          42
    1   2.0000000   2.0000000   2.0000000   2.0000000   2.0000000   2.0000000
           43          44          45          46          47          48
    1   2.0000000   2.0000000   2.0000000   2.0000000   2.0000000   2.0000000
           49          50          51          52          53          54
    1   2.0000000   2.0000000   2.0000000   2.0000000   2.0000000   2.0000000
           55          56          57          58          59          60
    1   2.0000000   2.0000000   2.0000000   2.0000000   2.0000000   2.0000000
           61          62          63          64          65          66
    1   2.0000000   2.0000000   2.0000000   2.0000000   2.0000000   2.0000000
           67          68          69          70          71          72
    1   2.0000000   2.0000000   2.0000000   2.0000000   2.0000000   2.0000000
           73          74          75          76          77          78
    1   2.0000000   2.0000000   2.0000000   2.0000000   2.0000000   2.0000000
           79          80          81          82          83          84
    1   2.0000000   2.0000000   2.0000000   2.0000000   2.0000000   2.0000000
           85          86          87          88          89          90
    1   2.0000000   2.0000000   2.0000000   2.0000000   2.0000000   2.0000000
           91          92          93          94          95          96
    1   2.0000000   2.0000000   2.0000000   2.0000000   2.0000000   2.0000000
           97          98          99         100         101         102
    1   2.0000000   2.0000000   2.0000000   2.0000000   2.0000000   2.0000000
          103         104         105         106         107         108
    1   2.0000000   2.0000000   2.0000000   2.0000000   2.0000000   2.0000000
          109         110         111         112         113         114
    1   2.0000000   2.0000000   2.0000000   2.0000000   2.0000000   2.0000000
          115         116         117         118         119         120
    1   2.0000000   2.0000000   2.0000000   2.0000000   2.0000000   2.0000000
          121         122         123         124         125         126
    1   2.0000000   2.0000000   2.0000000   2.0000000   2.0000000   2.0000000
          127         128         129         130         131         132
    1   2.0000000   2.0000000   2.0000000   2.0000000   2.0000000   2.0000000
          133         134         135         136         137         138
    1   2.0000000   2.0000000   2.0000000   2.0000000   2.0000000   2.0000000
          139         140         141         142         143         144
    1   2.0000000   2.0000000   2.0000000   2.0000000   2.0000000   2.0000000
          145         146         147         148         149         150
    1   2.0000000   2.0000000   2.0000000   2.0000000   2.0000000   2.0000000
          151         152         153         154         155         156
    1   2.0000000   2.0000000   2.0000000   2.0000000   2.0000000   2.0000000
          157         158         159         160         161         162
    1   2.0000000   2.0000000   2.0000000   2.0000000   2.0000000   2.0000000
          163         164         165         166         167         168
    1   2.0000000   2.0000000   2.0000000   2.0000000   2.0000000   2.0000000
          169         170         171         172         173         174
    1   2.0000000   2.0000000   2.0000000   2.0000000   2.0000000   2.0000000
          175         176         177         178         179         180
    1   2.0000000   2.0000000   2.0000000   2.0000000   2.0000000   2.0000000
          181         182         183         184         185         186
    1   2.0000000   2.0000000   2.0000000   2.0000000   2.0000000   2.0000000
          187         188         189         190         191         192
    1   2.0000000   2.0000000   2.0000000   2.0000000   2.0000000   2.0000000
          193         194         195         196         197         198
    1   2.0000000   2.0000000   2.0000000   2.0000000   2.0000000   2.0000000
          199         200         201         202         203         204
    1   2.0000000   2.0000000   2.0000000   2.0000000   2.0000000   2.0000000
          205         206         207         208         209         210
    1   2.0000000   2.0000000   2.0000000   2.0000000   2.0000000   2.0000000
          211         212         213         214         215         216
    1   2.0000000   2.0000000   2.0000000   2.0000000   2.0000000   2.0000000
          217         218         219         220         221         222
    1   2.0000000   2.0000000   2.0000000   2.0000000   2.0000000   2.0000000
          223         224         225         226         227         228
    1   2.0000000   2.0000000   2.0000000   2.0000000   2.0000000   2.0000000
          229         230         231         232         233         234
    1   2.0000000   2.0000000   2.0000000   2.0000000   2.0000000   2.0000000
          235         236         237         238         239         240
    1   2.0000000   2.0000000   2.0000000   2.0000000   2.0000000   2.0000000
          241         242         243         244         245         246
    1   2.0000000   2.0000000   2.0000000   2.0000000   2.0000000   2.0000000
          247         248         249         250         251         252
    1   2.0000000   2.0000000   2.0000000   2.0000000   2.0000000   2.0000000
          253         254         255         256         257         258
    1   2.0000000   2.0000000   2.0000000   2.0000000   2.0000000   2.0000000
          259         260         261         262         263         264
    1   2.0000000   2.0000000   2.0000000   2.0000000   2.0000000   2.0000000
          265         266         267         268         269         270
    1   2.0000000   2.0000000   2.0000000   2.0000000   2.0000000   2.0000000
          271         272         273         274         275         276
    1   2.0000000   2.0000000   2.0000000   2.0000000   2.0000000   2.0000000
          277         278         279         280         281         282
    1   2.0000000   2.0000000   2.0000000   2.0000000   2.0000000   2.0000000
          283         284         285         286         287         288
    1   2.0000000   2.0000000   2.0000000   2.0000000   2.0000000   2.0000000
          289         290         291         292         293         294
    1   2.0000000   2.0000000   2.0000000   2.0000000   1.9999999   1.9999999
          295         296         297         298         299         300
    1   1.9999995   1.9999993   1.9999993   1.9999991   1.9999958   1.9999712
          301         302         303         304         305         306
    1   1.9999450   1.9999441   1.9998631   1.9990935   1.9990754   1.9989940
          307         308         309         310         311         312
    1   1.9984413   1.9984345   1.9898689   1.9727041   1.0688941   1.0009753
          313         314         315         316         317         318
    1   0.9983039   0.9010440   0.0515499   0.0148415   0.0027220   0.0026875
          319         320         321         322         323         324
    1   0.0014953   0.0007570   0.0001734   0.0001705   0.0000333   0.0000112

 Head-Gordon Nu:    3.95
 Head-Gordon Nu_nl: 3.99

  Amplitudes : 
  
 | HOLE  | ALPHA | BETA  | PART  |    AMPLITUDE 
--------------------------------------------------
 |       | 1110  | 0010  |       |    -2.5428262040946E-01
 |       | 1011  | 1000  |       |     5.5796861821210E-01
 |       | 0111  | 0100  |       |    -5.5717745001881E-01
 | 308   | 1111  | 0010  |       |     1.4572928121017E-01
 | 308   | 1011  | 1001  |       |    -1.0836335345424E-01
 | 308   | 0111  | 0101  |       |     1.0816200358208E-01
 |       | 1010  | 1000  | 316   |    -1.4105540108891E-01
 |       | 1001  | 1000  | 315   |     2.5449971427391E-01
 |       | 0110  | 0100  | 316   |     1.4072031901158E-01
 |       | 0101  | 0100  | 315   |    -2.5420183200679E-01
--------------------------------------------------
*** Contributions RASCI wfn    Active:  68.84
                                 Hole:   9.80
                                 Part:  21.36

      Mulliken population analysis 
 ---------------------------------------------------
   Atom    Charge (a.u.)   Spin (a.u.)  
 ---------------------------------------------------
   1  H    0.240279       -0.000000 
   2  H    0.240279       -0.000000 
   3  H    0.240279       -0.000000 
   4  H    0.240279       -0.000000 
   5  C   -0.000712        0.018933 
   6  C   -0.000712        0.018933 
   7  C   -0.199904        0.019809 
   8  C   -0.049989        0.000364 
   9  C   -0.199904        0.019809 
  10  C   -0.199904        0.019809 
  11  C   -0.049989        0.000364 
  12  C   -0.199904        0.019809 
  13  C   -0.000712        0.018933 
  14  C   -0.000712        0.018933 
  15  C    0.014235        0.047366 
  16  C    0.014235        0.047366 
  17  C   -0.068543        0.000898 
  18  C   -0.233721        0.002904 
  19  C   -0.233721        0.002904 
  20  H    0.223690       -0.000000 
  21  C   -0.196336        0.036088 
  22  C   -0.038093        0.002369 
  23  H    0.223690       -0.000000 
  24  C   -0.196336        0.036088 
  25  H    0.250595       -0.000000 
  26  C    0.005930        0.007982 
  27  C    0.005930        0.007982 
  28  H    0.250595       -0.000000 
  29  C   -0.005886        0.050126 
  30  C   -0.005886        0.050126 
  31  C   -0.262394        0.035095 
  32  C   -0.041751        0.002925 
  33  C   -0.262394        0.035095 
  34  H    0.187439       -0.000000 
  35  C    0.013987        0.029458 
  36  B    0.241705        0.015628 
  37  H    0.187439       -0.000000 
  38  C    0.013987        0.029458 
  39  C   -0.201941        0.012985 
  40  C   -0.051966        0.032907 
  41  C   -0.051966        0.032907 
  42  C   -0.201941        0.012985 
  43  H    0.194021       -0.000000 
  44  C   -0.210556        0.009393 
  45  C   -0.096531        0.011076 
  46  C   -0.096531        0.011076 
  47  H    0.194021       -0.000000 
  48  C   -0.210556        0.009393 
  49  H    0.202263       -0.000000 
  50  C    0.043209        0.038252 
  51  B    0.309311        0.013256 
  52  C    0.043209        0.038252 
  53  H    0.202263       -0.000000 
  54  C   -0.256191        0.010949 
  55  C   -0.133292        0.004563 
  56  C   -0.256191        0.010949 
  57  H    0.168742       -0.000000 
  58  C   -0.140807        0.035742 
  59  C   -0.140807        0.035742 
  60  H    0.168742       -0.000000 
  61  H    0.182845       -0.000000 
  62  H    0.182845       -0.000000 
  63  H    0.233422       -0.000000 
  64  H    0.233422       -0.000000 
  65  H    0.246191       -0.000000 
  66  H    0.246191       -0.000000 
  67  C    0.017524        0.037182 
  68  C    0.017524        0.037182 
  69  C   -0.218031        0.007162 
  70  C   -0.065507        0.000641 
  71  C   -0.218031        0.007162 
  72  C   -0.189888        0.031543 
  73  C   -0.037446        0.000370 
  74  C   -0.189888        0.031543 
  75  C   -0.017705        0.004544 
  76  C   -0.017705        0.004544 
  77  H    0.168742       -0.000000 
  78  H    0.168742       -0.000000 
  79  H    0.202263       -0.000000 
  80  H    0.202263       -0.000000 
  81  H    0.194021       -0.000000 
  82  H    0.194021       -0.000000 
  83  H    0.187439       -0.000000 
  84  H    0.187439       -0.000000 
  85  H    0.250595       -0.000000 
  86  H    0.250595       -0.000000 
  87  H    0.223690       -0.000000 
  88  H    0.223690       -0.000000 
  89  B    0.309311        0.013256 
  90  B    0.241705        0.015628 
  91  H    0.182845       -0.000000 
  92  H    0.182845       -0.000000 
  93  C   -0.140807        0.035742 
  94  C   -0.140807        0.035742 
  95  C   -0.256191        0.010949 
  96  C   -0.133292        0.004563 
  97  C   -0.256191        0.010949 
  98  C    0.043209        0.038252 
  99  C    0.043209        0.038252 
 100  C   -0.210556        0.009393 
 101  C   -0.096531        0.011076 
 102  C   -0.096531        0.011076 
 103  C   -0.210556        0.009393 
 104  C   -0.201941        0.012985 
 105  C   -0.051966        0.032907 
 106  C   -0.051966        0.032907 
 107  C   -0.201941        0.012985 
 108  C    0.013987        0.029458 
 109  C    0.013987        0.029458 
 110  C   -0.262394        0.035095 
 111  C   -0.041751        0.002925 
 112  C   -0.262394        0.035095 
 113  C   -0.005886        0.050126 
 114  C   -0.005886        0.050126 
 115  C    0.005930        0.007982 
 116  C    0.005930        0.007982 
 117  C   -0.196336        0.036088 
 118  C   -0.038093        0.002369 
 119  C   -0.196336        0.036088 
 120  C   -0.233721        0.002904 
 121  C   -0.068543        0.000898 
 122  C   -0.233721        0.002904 
 123  C    0.014235        0.047366 
 124  C    0.014235        0.047366 
 125  H    0.246191       -0.000000 
 126  H    0.246191       -0.000000 
 127  H    0.233422       -0.000000 
 128  H    0.233422       -0.000000 
 129  C   -0.017705        0.004544 
 130  C   -0.017705        0.004544 
 131  C   -0.189888        0.031543 
 132  C   -0.037446        0.000370 
 133  C   -0.189888        0.031543 
 134  C   -0.218031        0.007162 
 135  C   -0.065507        0.000641 
 136  C   -0.218031        0.007162 
 137  C    0.017524        0.037182 
 138  C    0.017524        0.037182 
 ---------------------------------------------------
   Sum:    0.000000        2.000000 
 ---------------------------------------------------
 
*** Unpaired Electrons
 Yamaguchi Nd:         4.22
  
**************************************************
 RAS-CI total energy for state   4:  -3681.796779865557
  Excitation energy (eV) =  0.875204281053
  State symmetry: Ag    (D2h      )
  <S^2>      :  2.0000
  Dipole Moment:    0.0000 X    -0.0000 Y    -0.0000 Z
  Trans. Moment:    1.3115 X    -0.0000 Y     0.0000 Z
  Strength   :  0.036880
  Natural transition orbitals ( 1 -> 4 ):
   e-/hole pair  1 alpha:  ampl =  0.474517 ( 22.5%)   [4 : 5]
   e-/hole pair  2 alpha:  ampl =  0.113149 (  1.3%)   [3 : 6]
   e-/hole pair  1 beta :  ampl =  0.405692 ( 16.5%)   [4 : 5]
   e-/hole pair  2 beta :  ampl =  0.128901 (  1.7%)   [3 : 6]
   Sum of square amplitudes: 0.46

 NATURAL OCCUPATION NUMBERS (higher than 1.0E-05)
            1           2           3           4           5           6
    1   2.0000000   2.0000000   2.0000000   2.0000000   2.0000000   2.0000000
            7           8           9          10          11          12
    1   2.0000000   2.0000000   2.0000000   2.0000000   2.0000000   2.0000000
           13          14          15          16          17          18
    1   2.0000000   2.0000000   2.0000000   2.0000000   2.0000000   2.0000000
           19          20          21          22          23          24
    1   2.0000000   2.0000000   2.0000000   2.0000000   2.0000000   2.0000000
           25          26          27          28          29          30
    1   2.0000000   2.0000000   2.0000000   2.0000000   2.0000000   2.0000000
           31          32          33          34          35          36
    1   2.0000000   2.0000000   2.0000000   2.0000000   2.0000000   2.0000000
           37          38          39          40          41          42
    1   2.0000000   2.0000000   2.0000000   2.0000000   2.0000000   2.0000000
           43          44          45          46          47          48
    1   2.0000000   2.0000000   2.0000000   2.0000000   2.0000000   2.0000000
           49          50          51          52          53          54
    1   2.0000000   2.0000000   2.0000000   2.0000000   2.0000000   2.0000000
           55          56          57          58          59          60
    1   2.0000000   2.0000000   2.0000000   2.0000000   2.0000000   2.0000000
           61          62          63          64          65          66
    1   2.0000000   2.0000000   2.0000000   2.0000000   2.0000000   2.0000000
           67          68          69          70          71          72
    1   2.0000000   2.0000000   2.0000000   2.0000000   2.0000000   2.0000000
           73          74          75          76          77          78
    1   2.0000000   2.0000000   2.0000000   2.0000000   2.0000000   2.0000000
           79          80          81          82          83          84
    1   2.0000000   2.0000000   2.0000000   2.0000000   2.0000000   2.0000000
           85          86          87          88          89          90
    1   2.0000000   2.0000000   2.0000000   2.0000000   2.0000000   2.0000000
           91          92          93          94          95          96
    1   2.0000000   2.0000000   2.0000000   2.0000000   2.0000000   2.0000000
           97          98          99         100         101         102
    1   2.0000000   2.0000000   2.0000000   2.0000000   2.0000000   2.0000000
          103         104         105         106         107         108
    1   2.0000000   2.0000000   2.0000000   2.0000000   2.0000000   2.0000000
          109         110         111         112         113         114
    1   2.0000000   2.0000000   2.0000000   2.0000000   2.0000000   2.0000000
          115         116         117         118         119         120
    1   2.0000000   2.0000000   2.0000000   2.0000000   2.0000000   2.0000000
          121         122         123         124         125         126
    1   2.0000000   2.0000000   2.0000000   2.0000000   2.0000000   2.0000000
          127         128         129         130         131         132
    1   2.0000000   2.0000000   2.0000000   2.0000000   2.0000000   2.0000000
          133         134         135         136         137         138
    1   2.0000000   2.0000000   2.0000000   2.0000000   2.0000000   2.0000000
          139         140         141         142         143         144
    1   2.0000000   2.0000000   2.0000000   2.0000000   2.0000000   2.0000000
          145         146         147         148         149         150
    1   2.0000000   2.0000000   2.0000000   2.0000000   2.0000000   2.0000000
          151         152         153         154         155         156
    1   2.0000000   2.0000000   2.0000000   2.0000000   2.0000000   2.0000000
          157         158         159         160         161         162
    1   2.0000000   2.0000000   2.0000000   2.0000000   2.0000000   2.0000000
          163         164         165         166         167         168
    1   2.0000000   2.0000000   2.0000000   2.0000000   2.0000000   2.0000000
          169         170         171         172         173         174
    1   2.0000000   2.0000000   2.0000000   2.0000000   2.0000000   2.0000000
          175         176         177         178         179         180
    1   2.0000000   2.0000000   2.0000000   2.0000000   2.0000000   2.0000000
          181         182         183         184         185         186
    1   2.0000000   2.0000000   2.0000000   2.0000000   2.0000000   2.0000000
          187         188         189         190         191         192
    1   2.0000000   2.0000000   2.0000000   2.0000000   2.0000000   2.0000000
          193         194         195         196         197         198
    1   2.0000000   2.0000000   2.0000000   2.0000000   2.0000000   2.0000000
          199         200         201         202         203         204
    1   2.0000000   2.0000000   2.0000000   2.0000000   2.0000000   2.0000000
          205         206         207         208         209         210
    1   2.0000000   2.0000000   2.0000000   2.0000000   2.0000000   2.0000000
          211         212         213         214         215         216
    1   2.0000000   2.0000000   2.0000000   2.0000000   2.0000000   2.0000000
          217         218         219         220         221         222
    1   2.0000000   2.0000000   2.0000000   2.0000000   2.0000000   2.0000000
          223         224         225         226         227         228
    1   2.0000000   2.0000000   2.0000000   2.0000000   2.0000000   2.0000000
[...]
  3.078   3.085   3.098   3.100   3.105   3.112   3.117   3.120
253 B3u 254 B3u 257 Ag  222 B1g 224 B2u 255 B3u 225 B2u 258 Ag                 
  3.122   3.126   3.126   3.127   3.130   3.133   3.139   3.144
223 B1g 224 B1g 226 B2u 256 B3u 227 B2u 259 Ag  257 B3u 225 B1g                
  3.145   3.147   3.149   3.150   3.157   3.159   3.162   3.167
258 B3u 260 Ag  261 Ag  228 B2u 259 B3u 226 B1g 262 Ag  229 B2u                
  3.169   3.171   3.173   3.179   3.192   3.193   3.203   3.205
227 B1g 260 B3u 261 B3u 262 B3u 263 Ag  230 B2u 264 Ag  228 B1g                
  3.211   3.211   3.215   3.219   3.220   3.227   3.237   3.239
263 B3u 231 B2u 229 B1g 265 Ag  232 B2u 230 B1g 264 B3u 233 B2u                
  3.240   3.246   3.248   3.248   3.252   3.265   3.269   3.281
266 Ag  265 B3u 231 B1g 234 B2u 266 B3u 267 Ag  232 B1g 233 B1g                
  3.293   3.293   3.294   3.299   3.300   3.306   3.307   3.322
235 B2u 267 B3u 268 Ag  269 Ag  268 B3u 234 B1g 236 B2u 235 B1g                
  3.348   3.348   3.352   3.368   3.369   3.379   3.382   3.394
270 Ag  237 B2u 236 B1g 269 B3u 271 Ag  238 B2u 237 B1g 270 B3u                
  3.423   3.425   3.438   3.440   3.447   3.454   3.466   3.471
272 Ag  271 B3u 273 Ag  238 B1g 239 B2u 240 B2u 239 B1g 272 B3u                
  3.496   3.499   3.503   3.522   3.523   3.528   3.531   3.541
274 Ag  241 B2u 273 B3u 240 B1g 275 Ag  274 B3u 275 B3u 276 Ag                 
  3.552   3.554   3.555   3.577   3.594   3.619   3.640   3.651
242 B2u 277 Ag  241 B1g 276 B3u 277 B3u 278 Ag  242 B1g 278 B3u                
  3.653   3.674   3.698   3.702   3.715   3.728   3.765   3.793
279 Ag  243 B2u 243 B1g 244 B2u 279 B3u 244 B1g 280 Ag  280 B3u                
  3.794   3.814   3.848   3.862   3.883   3.916   3.918   3.951
245 B2u 281 Ag  281 B3u 245 B1g 282 Ag  282 B3u 246 B2u 283 Ag                 
  3.954   3.972   3.983   3.991   4.269   4.269   4.388   4.388
246 B1g 283 B3u 247 B2u 247 B1g 284 Ag  284 B3u 285 Ag  285 B3u                
  4.433   4.440   4.448   4.451   4.454   4.468   4.468   4.478
286 Ag  286 B3u 287 Ag  287 B3u 248 B2u 288 Ag  248 B1g 288 B3u                
  4.480   4.489   4.492   4.496   4.496   4.505   4.508   4.520
249 B2u 289 Ag  249 B1g 250 B2u 290 Ag  289 B3u 250 B1g 251 B2u                
  4.520   4.523   4.531   4.533   4.533   4.536   4.539   4.539
290 B3u 291 Ag  251 B1g 292 Ag  291 B3u 293 Ag  252 B2u 252 B1g                
  4.539   4.543   4.553   4.559   4.567   4.568   4.569   4.581
292 B3u 253 B2u 294 Ag  253 B1g 254 B2u 293 B3u 295 Ag  294 B3u                
  4.593   4.594   4.595   4.599   4.603   4.608   4.615   4.630
254 B1g 296 Ag  255 B2u 295 B3u 255 B1g 256 B2u 256 B1g 257 B2u                
  4.644   4.653   4.656   4.666   4.674   4.679   4.696   4.701
257 B1g 297 Ag  296 B3u 258 B2u 298 Ag  297 B3u 258 B1g 299 Ag                 
  4.705   4.714   4.720   4.724   4.735   4.736   4.739   4.746
298 B3u 300 Ag  299 B3u 259 B2u 300 B3u 301 Ag  301 B3u 259 B1g                
  4.752   4.756   4.764   4.770   4.784   4.799   4.832   4.835
302 Ag  302 B3u 303 Ag  260 B2u 303 B3u 260 B1g 304 Ag  261 B2u                
  4.862   4.891   4.898   4.921   4.926   4.926   4.948   4.972
261 B1g 262 B2u 304 B3u 262 B1g 305 Ag  305 B3u 263 B2u 263 B1g                
  4.972   4.996   5.011   5.011   5.017   5.017   5.017   5.045
306 Ag  264 B2u 264 B1g 265 B2u 306 B3u 307 Ag  265 B1g 266 B2u                
  5.048   5.051   5.126   5.181   5.184   5.204   5.268   5.289
266 B1g 307 B3u 308 Ag  308 B3u 309 Ag  309 B3u 310 Ag  267 B2u                
  5.289   5.322   5.366   5.398   5.430   5.435
267 B1g 310 B3u 311 Ag  311 B3u 312 Ag  312 B3u                                
 --------------------------------------------------------------
 
          Ground-State Mulliken Net Atomic Charges

     Atom                 Charge (a.u.)
  ----------------------------------------
      1 H                     0.240279
      2 H                     0.240279
      3 H                     0.240279
      4 H                     0.240279
      5 C                     0.010219
      6 C                     0.010219
      7 C                    -0.188355
      8 C                    -0.050094
      9 C                    -0.188355
     10 C                    -0.188355
     11 C                    -0.050094
     12 C                    -0.188355
     13 C                     0.010219
     14 C                     0.010219
     15 C                     0.053026
     16 C                     0.053026
     17 C                    -0.068283
     18 C                    -0.230363
     19 C                    -0.230363
     20 H                     0.223690
     21 C                    -0.153361
     22 C                    -0.059257
     23 H                     0.223690
     24 C                    -0.153361
     25 H                     0.250595
     26 C                     0.010573
     27 C                     0.010573
     28 H                     0.250595
     29 C                     0.039255
     30 C                     0.039255
     31 C                    -0.292486
     32 C                    -0.086868
     33 C                    -0.292486
     34 H                     0.187439
     35 C                     0.044198
     36 B                     0.104299
     37 H                     0.187439
     38 C                     0.044198
     39 C                    -0.188979
     40 C                    -0.070230
     41 C                    -0.070230
     42 C                    -0.188979
     43 H                     0.194021
     44 C                    -0.197033
     45 C                    -0.145621
     46 C                    -0.145621
     47 H                     0.194021
     48 C                    -0.197033
     49 H                     0.202263
     50 C                     0.081218
     51 B                     0.200916
     52 C                     0.081218
     53 H                     0.202263
     54 C                    -0.317302
     55 C                    -0.188253
     56 C                    -0.317302
     57 H                     0.168742
     58 C                    -0.107486
     59 C                    -0.107486
     60 H                     0.168742
     61 H                     0.182845
     62 H                     0.182845
     63 H                     0.233422
     64 H                     0.233422
     65 H                     0.246191
     66 H                     0.246191
     67 C                     0.036845
     68 C                     0.036845
     69 C                    -0.210303
     70 C                    -0.065237
     71 C                    -0.210303
     72 C                    -0.167296
     73 C                    -0.039704
     74 C                    -0.167296
     75 C                    -0.009764
     76 C                    -0.009764
     77 H                     0.168742
     78 H                     0.168742
     79 H                     0.202263
     80 H                     0.202263
     81 H                     0.194021
     82 H                     0.194021
     83 H                     0.187439
     84 H                     0.187439
     85 H                     0.250595
     86 H                     0.250595
     87 H                     0.223690
     88 H                     0.223690
     89 B                     0.200916
     90 B                     0.104299
     91 H                     0.182845
     92 H                     0.182845
     93 C                    -0.107486
     94 C                    -0.107486
     95 C                    -0.317302
     96 C                    -0.188253
     97 C                    -0.317302
     98 C                     0.081218
     99 C                     0.081218
    100 C                    -0.197033
    101 C                    -0.145621
    102 C                    -0.145621
    103 C                    -0.197033
    104 C                    -0.188979
    105 C                    -0.070230
    106 C                    -0.070230
    107 C                    -0.188979
    108 C                     0.044198
    109 C                     0.044198
    110 C                    -0.292486
    111 C                    -0.086868
    112 C                    -0.292486
    113 C                     0.039255
    114 C                     0.039255
    115 C                     0.010573
    116 C                     0.010573
    117 C                    -0.153361
    118 C                    -0.059257
    119 C                    -0.153361
    120 C                    -0.230363
    121 C                    -0.068283
    122 C                    -0.230363
    123 C                     0.053026
    124 C                     0.053026
    125 H                     0.246191
    126 H                     0.246191
    127 H                     0.233422
    128 H                     0.233422
    129 C                    -0.009764
    130 C                    -0.009764
    131 C                    -0.167296
    132 C                    -0.039704
    133 C                    -0.167296
    134 C                    -0.210303
    135 C                    -0.065237
    136 C                    -0.210303
    137 C                     0.036845
    138 C                     0.036845
  ----------------------------------------
  Sum of atomic charges =     0.000000

 -----------------------------------------------------------------
                    Cartesian Multipole Moments
 -----------------------------------------------------------------
    Charge (ESU x 10^10)
                -0.0000
    Dipole Moment (Debye)
         X      -0.0000      Y       0.0000      Z       0.0000
       Tot       0.0000
    Quadrupole Moments (Debye-Ang)
        XX   -1295.5072     XY       0.0000     YY    -452.0589
        XZ      -0.0000     YZ      -0.0000     ZZ    -587.4838
    Octopole Moments (Debye-Ang^2)
       XXX      -0.0000    XXY       0.0000    XYY      -0.0000
       YYY       0.0000    XXZ       0.0000    XYZ       0.0000
       YYZ       0.0000    XZZ      -0.0000    YZZ      -0.0000
       ZZZ       0.0000
    Hexadecapole Moments (Debye-Ang^3)
      XXXX -631862.8064   XXXY       0.0000   XXYY  -68453.7592
      XYYY       0.0000   YYYY  -13165.4160   XXXZ      -0.0000
      XXYZ      -0.0000   XYYZ      -0.0000   YYYZ      -0.0000
      XXZZ  -80128.5017   XYZZ      -0.0000   YYZZ   -2867.2380
      XZZZ      -0.0000   YZZZ       0.0000   ZZZZ    -644.7439
 -----------------------------------------------------------------
 Total job time:  71359.10s(wall), 70798.79s(cpu) 
 Wed Apr 17 04:18:22 2024

======= MOLDEN-FORMATTED INPUT FILE FOLLOWS =======
[Molden Format]
[Atoms] (Angs)
  H      1    1     -1.19120400     -3.39659500      0.00000000
  H      2    1     -1.19120400      3.39659500     -0.00000000
  H      3    1      1.19120400     -3.39659500      0.00000000
  H      4    1      1.19120400      3.39659500     -0.00000000
  C      5    6     -1.43847200     -1.23414000      0.00000000
  C      6    6     -1.43847200      1.23414000     -0.00000000
  C      7    6     -0.68307600     -2.44085400      0.00000000
  C      8    6     -0.72040700      0.00000000     -0.00000000
  C      9    6     -0.68307600      2.44085400     -0.00000000
  C     10    6      0.68307600     -2.44085400      0.00000000
  C     11    6      0.72040700     -0.00000000      0.00000000
  C     12    6      0.68307600      2.44085400     -0.00000000
  C     13    6      1.43847200     -1.23414000      0.00000000
  C     14    6      1.43847200      1.23414000     -0.00000000
  C     15    6      7.18407500     -1.23197600      0.00000000
  C     16    6      7.18407500      1.23197600     -0.00000000
  C     17    6      7.90774300      0.00000000      0.00000000
  C     18    6      7.93149700     -2.43981000      0.00000000
  C     19    6      7.93149700      2.43981000     -0.00000000
  H     20    1      7.41957400     -3.39372100      0.00000000
  C     21    6      9.29903300     -2.44662500      0.00000000
  C     22    6      9.34994200     -0.00000000      0.00000000
  H     23    1      7.41957400      3.39372100     -0.00000000
  C     24    6      9.29903300      2.44662500     -0.00000000
  H     25    1      9.80584400     -3.40281200      0.00000000
  C     26    6     10.06241200     -1.24938000      0.00000000
  C     27    6     10.06241200      1.24938000     -0.00000000
  H     28    1      9.80584400      3.40281200     -0.00000000
  C     29    6     11.50530300     -1.25282500      0.00000000
  C     30    6     11.50530300      1.25282500     -0.00000000
  C     31    6     12.26389900     -2.47544600      0.00000000
  C     32    6     12.18066100      0.00000000      0.00000000
  C     33    6     12.26389900      2.47544600     -0.00000000
  H     34    1     11.72907300     -3.42001900      0.00000000
  C     35    6     13.66872200     -2.54698800      0.00000000
  B     36    5     13.68213300      0.00000000      0.00000000
  H     37    1     11.72907300      3.42001900     -0.00000000
  C     38    6     13.66872200      2.54698800     -0.00000000
  C     39    6     14.42347400     -3.77840400      0.00000000
  C     40    6     14.41941900     -1.33014200      0.00000000
  C     41    6     14.41941900      1.33014200     -0.00000000
  C     42    6     14.42347400      3.77840400     -0.00000000
  H     43    1     13.89005200     -4.72692300      0.00000000
  C     44    6     15.79890000     -3.77683800      0.00000000
  C     45    6     15.81899000     -1.33667900      0.00000000
  C     46    6     15.81899000      1.33667900     -0.00000000
  H     47    1     13.89005200      4.72692300     -0.00000000
  C     48    6     15.79890000      3.77683800     -0.00000000
  H     49    1     16.33274700     -4.72488600      0.00000000
  C     50    6     16.55286200     -2.54805400      0.00000000
  B     51    5     16.56329400     -0.00000000      0.00000000
  C     52    6     16.55286200      2.54805400     -0.00000000
  H     53    1     16.33274700      4.72488600     -0.00000000
  C     54    6     17.98278700     -2.47194300      0.00000000
  C     55    6     18.08493200      0.00000000      0.00000000
  C     56    6     17.98278700      2.47194300     -0.00000000
  H     57    1     18.54197000     -3.40582400      0.00000000
  C     58    6     18.71087900     -1.27316100      0.00000000
  C     59    6     18.71087900      1.27316100     -0.00000000
  H     60    1     18.54197000      3.40582400     -0.00000000
  H     61    1     19.79945400     -1.35132800      0.00000000
  H     62    1     19.79945400      1.35132800     -0.00000000
  H     63    1      3.12041100     -3.39558200      0.00000000
  H     64    1      3.12041100      3.39558200     -0.00000000
  H     65    1      5.50147500     -3.39542300      0.00000000
  H     66    1      5.50147500      3.39542300     -0.00000000
  C     67    6      2.87147000     -1.23378300      0.00000000
  C     68    6      2.87147000      1.23378300     -0.00000000
  C     69    6      3.62780200     -2.43931800      0.00000000
  C     70    6      3.58914800      0.00000000      0.00000000
  C     71    6      3.62780200      2.43931800     -0.00000000
  C     72    6      4.99418800     -2.43950000      0.00000000
  C     73    6      5.02991000     -0.00000000      0.00000000
  C     74    6      4.99418800      2.43950000     -0.00000000
  C     75    6      5.74964400     -1.23285500      0.00000000
  C     76    6      5.74964400      1.23285500     -0.00000000
  H     77    1    -18.54197000     -3.40582400      0.00000000
  H     78    1    -18.54197000      3.40582400     -0.00000000
  H     79    1    -16.33274700     -4.72488600      0.00000000
  H     80    1    -16.33274700      4.72488600     -0.00000000
  H     81    1    -13.89005200     -4.72692300      0.00000000
  H     82    1    -13.89005200      4.72692300     -0.00000000
  H     83    1    -11.72907300     -3.42001900      0.00000000
  H     84    1    -11.72907300      3.42001900     -0.00000000
  H     85    1     -9.80584400     -3.40281200      0.00000000
  H     86    1     -9.80584400      3.40281200     -0.00000000
  H     87    1     -7.41957400     -3.39372100      0.00000000
  H     88    1     -7.41957400      3.39372100     -0.00000000
  B     89    5    -16.56329400      0.00000000     -0.00000000
  B     90    5    -13.68213300      0.00000000     -0.00000000
  H     91    1    -19.79945400     -1.35132800      0.00000000
  H     92    1    -19.79945400      1.35132800     -0.00000000
  C     93    6    -18.71087900     -1.27316100      0.00000000
  C     94    6    -18.71087900      1.27316100     -0.00000000
  C     95    6    -17.98278700     -2.47194300      0.00000000
  C     96    6    -18.08493200      0.00000000     -0.00000000
  C     97    6    -17.98278700      2.47194300     -0.00000000
  C     98    6    -16.55286200     -2.54805400      0.00000000
  C     99    6    -16.55286200      2.54805400     -0.00000000
  C    100    6    -15.79890000     -3.77683800      0.00000000
  C    101    6    -15.81899000     -1.33667900      0.00000000
  C    102    6    -15.81899000      1.33667900     -0.00000000
  C    103    6    -15.79890000      3.77683800     -0.00000000
  C    104    6    -14.42347400     -3.77840400      0.00000000
  C    105    6    -14.41941900     -1.33014200      0.00000000
  C    106    6    -14.41941900      1.33014200     -0.00000000
  C    107    6    -14.42347400      3.77840400     -0.00000000
  C    108    6    -13.66872200     -2.54698800      0.00000000
  C    109    6    -13.66872200      2.54698800     -0.00000000
  C    110    6    -12.26389900     -2.47544600      0.00000000
  C    111    6    -12.18066100      0.00000000     -0.00000000
  C    112    6    -12.26389900      2.47544600     -0.00000000
  C    113    6    -11.50530300     -1.25282500      0.00000000
  C    114    6    -11.50530300      1.25282500     -0.00000000
  C    115    6    -10.06241200     -1.24938000      0.00000000
  C    116    6    -10.06241200      1.24938000     -0.00000000
  C    117    6     -9.29903300     -2.44662500      0.00000000
  C    118    6     -9.34994200      0.00000000     -0.00000000
  C    119    6     -9.29903300      2.44662500     -0.00000000
  C    120    6     -7.93149700     -2.43981000      0.00000000
  C    121    6     -7.90774300      0.00000000     -0.00000000
  C    122    6     -7.93149700      2.43981000     -0.00000000
  C    123    6     -7.18407500     -1.23197600      0.00000000
  C    124    6     -7.18407500      1.23197600     -0.00000000
  H    125    1     -5.50147500     -3.39542300      0.00000000
  H    126    1     -5.50147500      3.39542300     -0.00000000
  H    127    1     -3.12041100     -3.39558200      0.00000000
  H    128    1     -3.12041100      3.39558200     -0.00000000
  C    129    6     -5.74964400     -1.23285500      0.00000000
  C    130    6     -5.74964400      1.23285500     -0.00000000
  C    131    6     -4.99418800     -2.43950000      0.00000000
  C    132    6     -5.02991000      0.00000000     -0.00000000
  C    133    6     -4.99418800      2.43950000     -0.00000000
  C    134    6     -3.62780200     -2.43931800      0.00000000
  C    135    6     -3.58914800      0.00000000     -0.00000000
  C    136    6     -3.62780200      2.43931800     -0.00000000
  C    137    6     -2.87147000     -1.23378300      0.00000000
  C    138    6     -2.87147000      1.23378300     -0.00000000

======= END OF MOLDEN-FORMATTED INPUT FILE =======


        *************************************************************
        *                                                           *
        *  Thank you very much for using Q-Chem.  Have a nice day.  *
        *                                                           *
        *************************************************************


