                  Welcome to Q-Chem
     A Quantum Leap Into The Future Of Chemistry


 Q-Chem 5.4 (devel), Q-Chem, Inc., Pleasanton, CA (2021)

 E. Epifanovsky,  A. T. B. Gilbert,  Xintian Feng,  Joonho Lee,  Yuezhi Mao,  
 N. Mardirossian,  P. Pokhilko,  A. White,  M. Wormit,  M. P. Coons,  
 A. L. Dempwolff,  Zhengting Gan,  D. Hait,  P. R. Horn,  L. D. Jacobson,  
 I. Kaliman,  J. Kussmann,  A. W. Lange,  Ka Un Lao,  D. S. Levine,  Jie Liu,  
 S. C. McKenzie,  A. F. Morrison,  K. Nanda,  F. Plasser,  D. R. Rehn,  
 M. L. Vidal,  Zhi-Qiang You,  Ying Zhu,  B. Alam,  B. Albrecht,  
 A. Aldossary,  E. Alguire,  J. H. Andersen,  D. Barton,  K. Begam,  A. Behn,  
 Y. A. Bernard,  E. J. Berquist,  H. Burton,  A. Carreras,  K. Carter-Fenk,  
 Romit Chakraborty,  A. D. Chien,  K. D. Closser,  V. Cofer-Shabica,  
 S. Dasgupta,  Jia Deng,  M. de Wergifosse,  M. Diedenhofen,  Hainam Do,  
 S. Ehlert,  Po-Tung Fang,  S. Fatehi,  Qingguo Feng,  T. Friedhoff,  
 J. Gayvert,  Qinghui Ge,  G. Gidofalvi,  M. Goldey,  J. Gomes,  
 C. Gonzalez-Espinoza,  S. Gulania,  A. Gunina,  M. W. D. Hanson-Heine,  
 P. H. P. Harbach,  A. W. Hauser,  M. F. Herbst,  M. Hernandez Vera,  
 M. Hodecker,  Z. C. Holden,  S. Houck,  Xunkun Huang,  Kerwin Hui,  
 B. C. Huynh,  M. Ivanov,  Hyunjun Ji,  Hanjie Jiang,  B. Kaduk,  S. Kaehler,  
 K. Khistyaev,  Jaehoon Kim,  P. Klunzinger,  Z. Koczor-Benda,  
 Joong Hoon Koh,  D. Kosenkov,  L. Koulias,  T. Kowalczyk,  C. M. Krauter,  
 K. Kue,  A. Kunitsa,  T. Kus,  A. Landau,  K. V. Lawler,  D. Lefrancois,  
 S. Lehtola,  Rain Li,  Yi-Pei Li,  Jiashu Liang,  M. Liebenthal,  
 Hung-Hsuan Lin,  You-Sheng Lin,  Fenglai Liu,  Kuan-Yu Liu,  
 M. Loipersberger,  A. Luenser,  A. Manjanath,  P. Manohar,  E. Mansoor,  
 S. F. Manzer,  Shan-Ping Mao,  A. V. Marenich,  T. Markovich,  S. Mason,  
 S. A. Maurer,  P. F. McLaughlin,  M. F. S. J. Menger,  J.-M. Mewes,  
 S. A. Mewes,  P. Morgante,  J. W. Mullinax,  K. J. Oosterbaan,  G. Paran,  
 Alexander C. Paul,  Suranjan K. Paul,  F. Pavosevic,  Zheng Pei,  S. Prager,  
 E. I. Proynov,  E. Ramos,  B. Rana,  A. E. Rask,  A. Rettig,  R. M. Richard,  
 F. Rob,  E. Rossomme,  T. Scheele,  M. Scheurer,  M. Schneider,  
 N. Sergueev,  S. M. Sharada,  W. Skomorowski,  D. W. Small,  C. J. Stein,  
 Yu-Chuan Su,  E. J. Sundstrom,  Zhen Tao,  J. Thirman,  T. Tsuchimochi,  
 N. M. Tubman,  S. P. Veccham,  O. Vydrov,  J. Wenzel,  J. Witte,  A. Yamada,  
 Kun Yao,  S. Yeganeh,  S. R. Yost,  A. Zech,  Igor Ying Zhang,  Xing Zhang,  
 Yu Zhang,  D. Zuev,  A. Aspuru-Guzik,  A. T. Bell,  N. A. Besley,  
 K. B. Bravaya,  B. R. Brooks,  D. Casanova,  Jeng-Da Chai,  S. Coriani,  
 C. J. Cramer,  A. E. DePrince, III,  R. A. DiStasio Jr.,  A. Dreuw,  
 B. D. Dunietz,  T. R. Furlani,  W. A. Goddard III,  S. Grimme,  
 S. Hammes-Schiffer,  T. Head-Gordon,  W. J. Hehre,  Chao-Ping Hsu,  
 T.-C. Jagau,  Yousung Jung,  A. Klamt,  Jing Kong,  D. S. Lambrecht,  
 WanZhen Liang,  N. J. Mayhall,  C. W. McCurdy,  J. B. Neaton,  T. Neudecker,  
 C. Ochsenfeld,  J. A. Parkhill,  R. Peverati,  V. A. Rassolov,  Yihan Shao,  
 L. V. Slipchenko,  R. P. Steele,  J. E. Subotnik,  A. J. W. Thom,  
 A. Tkatchenko,  D. G. Truhlar,  T. Van Voorhis,  T. A. Wesolowski,  
 K. B. Whaley,  H. L. Woodcock III,  P. M. Zimmerman,  S. Faraji,  
 P. M. W. Gill,  M. Head-Gordon,  J. M. Herbert,  A. I. Krylov

 Additional authors since Version 5.4.0: 
 Chandrima Chakravarty,  L. Cunha,  R. Kang,  Yongbin Kim,  S. Kotaru,  
 Shaozhi Li,  Xiangyuan Li,  F. Matz,  A. Molle,  V. Parravicini,  
 Haisheng Ren,  Hengyuan Shen,  Yingli Su,  Hung-Yi Tsai,  C. Utku,  
 Fang Wang,  Jeff Yang,  F. Zeller

 Contributors to earlier versions of Q-Chem not listed above: 
 R. D. Adamson,  B. Austin,  R. Baer,  J. Baker,  G. J. O. Beran,  
 K. Brandhorst,  S. T. Brown,  E. F. C. Byrd,  Arup K. Chakraborty,  
 G. K. L. Chan,  Chun-Min Chang,  Yunqing Chen,  C.-L. Cheng,  
 Siu Hung Chien,  D. M. Chipman,  D. L. Crittenden,  H. Dachsel,  
 R. J. Doerksen,  A. D. Dutoi,  R. G. Edgar,  J. Fosso-Tande,  
 L. Fusti-Molnar,  D. Ghosh,  A. Ghysels,  A. Golubeva-Zadorozhnaya,  
 J. Gonthier,  M. S. Gordon,  S. R. Gwaltney,  G. Hawkins,  J. E. Herr,  
 A. Heyden,  S. Hirata,  E. G. Hohenstein,  G. Kedziora,  F. J. Keil,  
 C. Kelley,  Jihan Kim,  R. A. King,  R. Z. Khaliullin,  P. P. Korambath,  
 W. Kurlancheek,  A. Laurent,  A. M. Lee,  M. S. Lee,  S. V. Levchenko,  
 Ching Yeh Lin,  D. Liotard,  E. Livshits,  R. C. Lochan,  I. Lotan,  
 L. A. Martinez-Martinez,  P. E. Maslen,  N. Nair,  D. P. O'Neill,  
 D. Neuhauser,  E. Neuscamman,  C. M. Oana,  R. Olivares-Amaya,  R. Olson,  
 T. M. Perrine,  B. Peters,  P. A. Pieniazek,  A. Prociuk,  Y. M. Rhee,  
 J. Ritchie,  M. A. Rohrdanz,  E. Rosta,  N. J. Russ,  H. F. Schaefer III,  
 M. W. Schmidt,  N. E. Schultz,  S. Sharma,  N. Shenvi,  C. D. Sherrill,  
 A. C. Simmonett,  A. Sodt,  T. Stein,  D. Stuck,  K. S. Thanthiriwatte,  
 V. Vanovschi,  L. Vogt,  Tao Wang,  A. Warshel,  M. A. Watson,  
 C. F. Williams,  Q. Wu,  X. Xu,  Jun Yang,  W. Zhang,  Yan Zhao

   Please cite Q-Chem as follows:
  "Software for the frontiers of quantum chemistry:
   An overview of developments in the Q-Chem 5 package"
   J. Chem. Phys. 155, 084801 (2021)
   https://doi.org/10.1063/5.0055522 (open access)

 Q-Chem 5.4.2 for Intel X86 EM64T Linux

 Parts of Q-Chem use Armadillo 9.900.5 (Nocturnal Misbehaviour).
 http://arma.sourceforge.net/

 Q-Chem begins on Thu Nov  3 10:27:59 2022  

 Host: atlas-174
0

     Scratch files written to ./qchem34935//
 Processing $rem in /scratch/abel/SOFTWARE/qchem/config/preferences:
 Processing $rem in /dipc/acebg/.qchemrc:
The previous job contains 0 fragments, simply inherited here

 Checking the input file for inconsistencies... 	...done.

--------------------------------------------------------------
User input:
--------------------------------------------------------------
$comment
 RAS-SF CALCULATION
$end

$molecule
 READ cucl4_2-.molecule
$end

$rem
!**CALCULATION TYPE***     
JOBTYPE            sp    
EXCHANGE           HF
CORRELATION        RASCI    !RASCI=Casanova; RASCI2=Zimmerman
BASIS              def2-TZVP
BASIS2             STO-3G

!***SCF REFERENCE***
SKIP_SCFMAN        FALSE
UNRESTRICTED       FALSE
!SCF_GUESS          core
!SCF_GUESS_MIX      FALSE
!SCF_GUESS_ALWAYS   FALSE
MAX_SCF_CYCLES     500
SCF_CONVERGENCE    8
!SCF_ALGORITHM      DIIS !DIIS,DM,DIIS_DM,GDM,DIIS_GDM,GD

SYMMETRY           TRUE !use of symmetry for calculating integrals
SYM_IGNORE         FALSE !turn off using symmetry
SYM_TOL            5 !tolerance for determining point group

!THRESH             14
SCF_FINAL_PRINT     1 !0,1,2,3

!****RAS-SF****
RAS_ROOTS          10       !number of RAS-CI roots to be computed
SET_ITER           150     !number of iterations in RASCI
RAS_ELEC           13       !number of electrons in RAS2
!RAS_ELEC_ALPHA            !spin-α electrons in RAS2 
!RAS_ELEC_BETA             !spin-β electrons in RAS2

RAS_ACT            8       !number of orbitals in RAS2 
RAS_ACT_ORB       [34, 35, 36, 41, 44, 45, 50, 51] !user-selected RAS2 orbitals
RAS_OCC            43       !number of orbitals in RAS1
N_FROZEN_CORE      FC     !Number of frozen core orbitals
N_FROZEN_VIRTUAL   0      !Number of frozen virtual orbitals
RAS_NATORB         TRUE    !computation of the natural orbital occupancies
!RAS_NATORB_STATE  0      !Saves NO of i RAS computed state in .fchk ﬁle

RAS_DO_HOLE        TRUE   !presence of hole excitations in RAS-CI wave function
RAS_DO_PART        TRUE   !presence of particle excitations
RAS_AMPL_PRINT     10     !threshold (×10 2 ) for the CI amplitudes

RAS_GUESS_CS       0      !number of closed shell guess conﬁgurations
RAS_SPIN_MULT      0      !spin multiplicity: 0=any, 2n+1=defined 
RAS_SRDFT          FALSE  !short-range density functional RAS-CI
RAS_NFRAG          0     !fragments of excitation analysis in RASCI

RAS_PRINT          2      !level of information
RAS_NATORB         TRUE   !computation of the natural orbital occupancies
!RAS_NATORB_STATE  0      !Saves NO of i RAS computed state in .fchk ﬁle
RAS_FOD            TRUE

!****RAS-SOC****
CALC_SOC           TRUE   !calculate SOC for EOM-CC, RAS-CI, ADC, TDDFT/TDA and TDDFT
!RAS_SOC_2E        TRUE   !two-electron mean-ﬁeld contribution, default=true
RAS_SOC_SYM_DENS   TRUE   !averaging of α and β densities

!****MEMORY****
MEM_TOTAL          15000 !Default 2000 MB
MEM_STATIC         2000  !Default 64 MB

!**Molecular Properties and Analysis **                                                                                          
GUI                2
STATE_ANALYSIS     TRUE
MOLDEN_FORMAT      TRUE
PRINT_ORBITALS     20
$end                                           

--------------------------------------------------------------
 ----------------------------------------------------------------
             Standard Nuclear Orientation (Angstroms)
    I     Atom           X                Y                Z
 ----------------------------------------------------------------
    1      Cu     -0.0000000000     0.0000000000    -0.0000000000
    2      Cl      2.3112385002    -0.0000000000    -0.0000000000
    3      Cl      0.0000000000     2.3112385002    -0.0000000000
    4      Cl     -0.0000000000    -2.3112385002     0.0000000000
    5      Cl     -2.3112385002     0.0000000000     0.0000000000
 ----------------------------------------------------------------
 Molecular Point Group                 D2h   NOp =  8
 Largest Abelian Subgroup              D2h   NOp =  8
 Nuclear Repulsion Energy =         704.82872953 hartrees
 There are       50 alpha and       49 beta electrons
 Requested basis set is def2-TZVP
 There are 67 shells and 193 basis functions

 Total QAlloc Memory Limit  15000 MB
 Mega-Array Size      1956 MB
 MEM_STATIC part      2000 MB


                       Distance Matrix (Angstroms)
             Cu(  1)   Cl(  2)   Cl(  3)   Cl(  4)
   Cl(  2)  2.311239
   Cl(  3)  2.311239  3.268585
   Cl(  4)  2.311239  3.268585  4.622477
   Cl(  5)  2.311239  4.622477  3.268585  3.268585
 
 A cutoff of  1.0D-12 yielded   1874 shell pairs
 There are     16710 function pairs (     21943 Cartesian)
 Smallest overlap matrix eigenvalue = 9.49E-03

 Scale SEOQF with 1.000000e-01/1.000000e-01/1.000000e-01

 Standard Electronic Orientation quadrupole field applied
 Nucleus-field energy     =     0.0000000195 hartrees
 Requested basis set is STO-3G
 There are 17 shells and 54 basis functions
 A cutoff of  1.0D-12 yielded    113 shell pairs
 There are      1311 function pairs (      1371 Cartesian)
 Smallest overlap matrix eigenvalue = 2.93E-01
 Constructing guess Fock matrix from core Hamiltonian
 Applying Wolfsberg-Helmholtz approximation
 A restricted Hartree-Fock SCF calculation will be
 performed using Geometric Direct Minimization
 SCF converges when RMS gradient is below 1.0E-04
 ---------------------------------------
  Cycle       Energy        RMS Gradient
 ---------------------------------------
    1   -3414.0448209425      5.46E+00 Descent step
    2   -3416.0789549848      2.40E+04 Line search: understep
    3   -3427.8100586570      1.46E+00 Descent step
    4   -3428.6717161485      8.51E+03 Line search: understep
    5   -3432.7992156610      3.93E+00 Descent step
    6   -3434.1070673373      2.01E+00 Descent step
    7   -3434.9438365728      1.55E+00 Descent step
    8   -3435.7226093628      1.29E+00 Descent step
    9   -3436.3932676866      1.07E+00 Descent step
   10   -3436.8898005574      8.41E-01 Descent step
   11   -3437.2425841589      6.16E-01 Descent step
   12   -3437.5069357397      4.90E-01 Descent step
   13   -3437.7549079830      7.45E-01 Descent step
   GDM::BFGS:   rebuilding Hinv to be positive definite
   14   -3438.0546748814      1.23E+00 Descent step
   15   -3438.4424555280      4.57E-01 Descent step
   16   -3438.5678499566      1.90E-01 Dog-leg BFGS step
   17   -3438.5808861029      1.08E-01 Dog-leg BFGS step
   18   -3438.5894129584      7.78E-02 Dog-leg BFGS step
   19   -3438.5751444492      2.78E+01 Line search: overstep
   20   -3438.5941026412      6.21E-02 Dog-leg BFGS step
   21   -3438.5985463983      1.32E-02 Normal BFGS step
   22   -3438.5986574106      3.08E-03 Normal BFGS step
   23   -3438.5986645899      6.88E-04 Normal BFGS step
   24   -3438.5986654896      2.25E-04 Normal BFGS step
   25   -3438.5986656685      4.54E-05 Convergence criterion met
 ---------------------------------------
 One-Electron    Energy = -6230.8986956401
 Total Coulomb   Energy =  2265.0313634541
 Alpha Exchange  Energy =   -88.9417208690
 Beta  Exchange  Energy =   -88.6183421633
 DFT   Exchange  Energy =     0.0000000000
 DFT Correlation Energy =     0.0000000000
 Nuclear Repu.   Energy =   704.8287295498
 Nuclear Attr.   Energy = -9638.5422937596
 Kinetic         Energy =  3407.6435981195
 SCF time:  CPU 2.11 s  wall 3.62 s
 SCF   energy in the small basis set = -3438.59866567
 Total energy in the small basis set = -3438.59866567
 ----------------------------------------------------
  Cycle       Energy    
 ----------------------------------------------------
    1    -163.9689023428     -1.64E+02
 A restricted Hartree-Fock SCF calculation will be
 performed using Geometric Direct Minimization
 SCF converges when RMS gradient is below 1.0E-08
 ---------------------------------------
  Cycle       Energy        RMS Gradient
 ---------------------------------------
    1   -3476.5617618619      5.21E-01 Descent step
    2   -3476.8147995946      3.23E-01 Descent step
    3   -3477.0337745587      2.10E-01 Descent step
    4   -3477.1478394215      1.08E-01 Normal BFGS step
    5   -3477.1744814111      3.88E-02 Normal BFGS step
    6   -3477.1779029598      1.35E-02 Normal BFGS step
    7   -3477.1781984402      3.71E-02 Normal BFGS step
    8   -3477.1784326126      1.26E-02 Normal BFGS step
    9   -3477.1784852679      1.87E-03 Normal BFGS step
   10   -3477.1784884386      4.43E-04 Normal BFGS step
   11   -3477.1784886068      4.49E-05 Normal BFGS step
   12   -3477.1784886178      2.00E-05 Normal BFGS step
   13   -3477.1784886189      3.34E-06 Normal BFGS step
   GDM::WARNING energy changes are now smaller than effective accuracy.
   GDM::        calculation will continue, but THRESH should be increased
   GDM::        or SCF_CONVERGENCE decreased.
   GDM::        effective_thresh =   1.018925666063097E-009
   14   -3477.1784886188      2.33E-06 Normal BFGS step
   15   -3477.1784886191      4.61E-07 Normal BFGS step
   GDM::WARNING energy changes are now smaller than effective accuracy.
   GDM::        calculation will continue, but THRESH should be increased
   GDM::        or SCF_CONVERGENCE decreased.
   GDM::        effective_thresh =   1.018925666063097E-009
   16   -3477.1784886190      6.47E-08 Normal BFGS step
   17   -3477.1784886190      2.94E-08 Normal BFGS step
   GDM::WARNING energy changes are now smaller than effective accuracy.
   GDM::        calculation will continue, but THRESH should be increased
   GDM::        or SCF_CONVERGENCE decreased.
   GDM::        effective_thresh =   4.233598471792277E-009
   18   -3477.1784886190      4.38E-08 Normal BFGS step
   GDM::WARNING energy changes are now smaller than effective accuracy.
   GDM::        calculation will continue, but THRESH should be increased
   GDM::        or SCF_CONVERGENCE decreased.
   GDM::        effective_thresh =   4.233598471792277E-009
   19   -3477.1784886189      5.04E-09 Convergence criterion met
 ---------------------------------------
 One-Electron    Energy = -6269.6381212063
 Total Coulomb   Energy =  2264.1952096325
 Alpha Exchange  Energy =   -88.9536067776
 Beta  Exchange  Energy =   -87.6106998173
 DFT   Exchange  Energy =     0.0000000000
 DFT Correlation Energy =     0.0000000000
 Nuclear Repu.   Energy =   704.8287295498
 Nuclear Attr.   Energy = -9747.4359154186
 Kinetic         Energy =  3477.7977942122
 SCF time:  CPU 105.28 s  wall 108.27 s
 SCF   energy in the final basis set = -3477.17848862
 Total energy in the final basis set = -3477.17848862
  
     ##========================================##
     ||                                        ||
     ||              R A S M A N 2             ||
     ||________________________________________||
     ||                                        ||
     ||  Author:                               ||
     ||                                        ||
     ||        David Casanova (2010)           ||
     ||                                        ||
     ##========================================##
  
  ***************************************************
  *  RAS-CI Dimensions:                             *
  *                                                 *
  *  Active Elec.:  13 ( 7, 6)   Active Orb.:   8   *
  *  Doubly Occ. :  43           Doubly Vir.: 142   *
  *  Frozen Occ. :  29           Frozen Vir.:   0   *
  *                                                 *
  *  Total CI configurations:    176456             * 
  *    Active configurations:       224             * 
  *      Hole configurations:      1288             * 
  *  Particle configurations:    174944             * 
  *                                                 *
  *   Requested states:       10                    *
  *  Spin multiplicity: Any multiplicity            *
  *                                                 *
  ***************************************************
-----------------------------------------
    Memory requirements of RASCI

 Each CI-vector requires      1.35 MiB 
 Max. subspace vectors           1500      

 Reduced Lists                0.00 MiB 
 Excitation Lists             0.00 MiB 
 Excitation Lists Sign        0.00 MiB 
 CI-space (Max)            2050.02 MiB 
 Integrals                   38.88 MiB 
 Memory required (Max)     2050.02 MiB 
 Memory available          1907.35 MiB 

 Q-Chem warning in module rasman2/ras_mem_check.C, line 162:

 Static memory may be insufficient to store the subspace vectors


    Disk requirements of RASCI

 Fock matrix                  0.57 MiB 
 2-electron integrals        42.99 MiB 
 CI-space                  4038.76 MiB 
 Disk required             4082.31 MiB 
-----------------------------------------
  
RAS1 HF-like energy:          -3440.2342485936
 Computing integrals
 Computing J and K matrices
 Computing addressing
 Making amplitude guesses
 
Direct CI diagonalization
 ---------------------------------------------------
 Iter    Rts Conv    Rts Left    Ttl Dev     Max Dev
 ---------------------------------------------------
   1         0          10      0.007111    0.001848
   2         0          10      0.004281    0.000925
   3         0          10      0.002190    0.000406
   4         0          10      0.003213    0.000703
   5         0          10      0.002545    0.000671
   6         0          10      0.002484    0.000738
   7         0          10      0.003351    0.001198
   8         0          10      0.008564    0.002356
   9         0          10      0.004362    0.000712
  10         0          10      0.004310    0.000711
  11         0          10      0.003787    0.000586
  12         0          10      0.003010    0.000691
  13         1           9      0.002506    0.000428
  14         1           9      0.002952    0.000586
  15         1           9      0.002477    0.000620
  16         1           9      0.002272    0.000616
  17         0          10      0.002530    0.000765
  18         0          10      0.002733    0.000766
  19         0          10      0.002737    0.000923
  20         0          10      0.002110    0.000593
  21         0          10      0.002027    0.000616
  22         0          10      0.002085    0.000574
  23         0          10      0.001731    0.000475
  24         0          10      0.001639    0.000468
  25         0          10      0.001481    0.000437
  26         0          10      0.001511    0.000442
  27         1           9      0.001082    0.000289
  28         0          10      0.000987    0.000245
  29         1           9      0.000819    0.000250
  30         1           9      0.000724    0.000219
  31         3           7      0.000604    0.000197
  32         3           7      0.000581    0.000187
  33         3           7      0.000618    0.000215
  34         3           7      0.000447    0.000152
  35         3           7      0.000447    0.000169
  36         3           7      0.000362    0.000113
  37         3           7      0.000332    0.000099
  38         3           7      0.000261    0.000078
  39         3           7      0.000301    0.000112
  40         4           6      0.000218    0.000078
  41         5           5      0.000225    0.000086
  42         5           5      0.000227    0.000077
  43         5           5      0.000220    0.000086
  44         6           4      0.000203    0.000076
  45         6           4      0.000218    0.000086
  46         6           4      0.000230    0.000087
  47         6           4      0.000212    0.000069
  48         6           4      0.000238    0.000102
  49         6           4      0.000209    0.000089
  50         6           4      0.000193    0.000083
  51         6           4      0.000209    0.000103
  52         6           4      0.000241    0.000143
  53         6           4      0.000179    0.000083
  54         6           4      0.000190    0.000106
  55         6           4      0.000210    0.000122
  56         6           4      0.000206    0.000116
  57         6           4      0.000175    0.000098
  58         6           4      0.000262    0.000179
  59         6           4      0.000292    0.000216
  60         6           4      0.001293    0.001216
  61         6           4      0.001606    0.001535
  62         6           4      0.001461    0.001393
  63         6           4      0.001033    0.000968
  64         6           4      0.000857    0.000799
  65         6           4      0.000670    0.000609
  66         6           4      0.000608    0.000554
  67         6           4      0.000357    0.000303
  68         6           4      0.000307    0.000259
  69         6           4      0.000289    0.000246
  70         6           4      0.000219    0.000179
  71         6           4      0.000147    0.000104
  72         6           4      0.000130    0.000098
  73         6           4      0.000094    0.000060
  74         6           4      0.000071    0.000041
  75         6           4      0.000068    0.000038
  76         6           4      0.000060    0.000033
  77         6           4      0.000056    0.000027
  78         6           4      0.000045    0.000019
  79         6           4      0.000040    0.000020
  80         6           4      0.000033    0.000017
  81         6           4      0.000028    0.000018
  82         6           4      0.000021    0.000011
  83         6           4      0.000019    0.000011
  84         6           4      0.000016    0.000010
  85         6           4      0.000013    0.000008
  86         8           2      0.000010    0.000005
  87         9           1      0.000011    0.000007
  88         9           1      0.000010    0.000005
  89         9           1      0.000009    0.000004
  90         9           1      0.000009    0.000005
  91         9           1      0.000010    0.000006
  92         9           1      0.000010    0.000006
  93         9           1      0.000016    0.000012
  94         9           1      0.000034    0.000030
  95         9           1      0.001549    0.001542
  96         9           1      0.001087    0.001083
  97         9           1      0.001081    0.001076
  98         9           1      0.000857    0.000852
  99         9           1      0.000636    0.000631
 100         9           1      0.000533    0.000529
 101         9           1      0.000517    0.000513
 102         9           1      0.000273    0.000269
 103         9           1      0.000229    0.000225
 104         9           1      0.000196    0.000192
 105         9           1      0.000129    0.000125
 106         9           1      0.000089    0.000084
 107         9           1      0.000083    0.000078
 108         9           1      0.000052    0.000048
 109         9           1      0.000040    0.000036
 110         9           1      0.000030    0.000025
 111         9           1      0.000026    0.000022
 112         9           1      0.000016    0.000012
 113         9           1      0.000014    0.000010
 114         9           1      0.000012    0.000008
 115         9           1      0.000010    0.000005
 116         9           1      0.000008    0.000004
 117         9           1      0.000008    0.000004
 118         9           1      0.000006    0.000002
 119         9           1      0.000006    0.000002
 120         9           1      0.000005    0.000001
 121        10           0      0.000005    0.000001    Roots Converged
 ---------------------------------------------------
   
**************************************************
 RAS-CI total energy for state   1:  -3477.179871536915
  Excitation energy (eV) =  0.000000000000
  State symmetry: B1u   (D2h      )
  <S^2>      :  0.7500
  Dipole Moment:   -0.0000 X    -0.0000 Y     0.0000 Z
 NATURAL OCCUPATION NUMBERS (higher than 1.0E-05)
            1           2           3           4           5           6
    1   2.0000000   2.0000000   2.0000000   2.0000000   2.0000000   2.0000000
            7           8           9          10          11          12
    1   2.0000000   2.0000000   2.0000000   2.0000000   2.0000000   2.0000000
           13          14          15          16          17          18
    1   2.0000000   2.0000000   2.0000000   2.0000000   2.0000000   2.0000000
           19          20          21          22          23          24
    1   2.0000000   2.0000000   2.0000000   2.0000000   2.0000000   2.0000000
           25          26          27          28          29          30
    1   2.0000000   2.0000000   2.0000000   2.0000000   2.0000000   2.0000000
           31          32          33          34          35          36
    1   2.0000000   2.0000000   2.0000000   2.0000000   2.0000000   2.0000000
           37          38          39          40          41          42
    1   2.0000000   2.0000000   2.0000000   2.0000000   1.9999989   1.9999988
           43          44          45          46          47          48
    1   1.9999325   1.9999264   1.9998581   1.9998581   1.9997983   1.9994598
           49          50          51          52          53          54
    1   1.9994597   1.0003818   0.0002952   0.0002722   0.0002720   0.0001879
           55          56          57          58          59
    1   0.0001200   0.0000481   0.0000380   0.0000223   0.0000110

  Amplitudes : 
  
 | HOLE  | ALPHA    | BETA     | PART  |    AMPLITUDE 
--------------------------------------------------
 |       | 11111110 | 11111100 |       |    -9.9942019965485E-01
--------------------------------------------------
*** Contributions RASCI wfn    Active:  99.89
                                 Hole:   0.01
                                 Part:   0.10

      Mulliken population analysis 
 ---------------------------------------------------
   Atom    Charge (a.u.)   Spin (a.u.)  
 ---------------------------------------------------
   1 Cu    0.878960        0.929443 
   2 Cl   -0.719740        0.017639 
   3 Cl   -0.719740        0.017639 
   4 Cl   -0.719740        0.017639 
   5 Cl   -0.719740        0.017639 
 ---------------------------------------------------
   Sum:   -2.000000        1.000000 
 ---------------------------------------------------
 
  
 NATURAL OCCUPATION NUMBERS (higher than 1.0E-05)
            1           2           3           4           5           6
    1   2.0000000   2.0000000   2.0000000   2.0000000   2.0000000   2.0000000
            7           8           9          10          11          12
    1   2.0000000   2.0000000   2.0000000   2.0000000   2.0000000   2.0000000
           13          14          15          16          17          18
    1   2.0000000   2.0000000   2.0000000   2.0000000   2.0000000   2.0000000
           19          20          21          22          23          24
    1   2.0000000   2.0000000   2.0000000   2.0000000   2.0000000   2.0000000
           25          26          27          28          29          30
    1   2.0000000   2.0000000   2.0000000   2.0000000   2.0000000   2.0000000
           31          32          33          34          35          36
    1   2.0000000   2.0000000   2.0000000   2.0000000   2.0000000   2.0000000
           37          38          39          40          41          42
    1   2.0000000   2.0000000   2.0000000   2.0000000   1.9999989   1.9999988
           43          44          45          46          47          48
    1   1.9999325   1.9999264   1.9998581   1.9998581   1.9997983   1.9994598
           49          50          51          52          53          54
    1   1.9994597   1.0003818   0.0002952   0.0002722   0.0002720   0.0001879
           55          56          57          58          59
    1   0.0001200   0.0000481   0.0000380   0.0000223   0.0000110
  
*** Unpaired Electrons
 Yamaguchi Nd:         1.01
 Head-Gordon Nu:       1.00
 Head-Gordon Nu_nl:    1.00
  
**************************************************
 RAS-CI total energy for state   2:  -3477.149941976648
  Excitation energy (eV) =  0.814424771491
  Warning: not all configurations have same symmetry
  State symmetry: *Ag    (D2h      )
  <S^2>      :  0.7500
  Dipole Moment:   -0.0000 X     0.0000 Y    -0.0000 Z
  Trans. Moment:    0.0000 X    -0.0000 Y    -0.0000 Z
  Strength   :  0.000000
  Natural transition orbitals ( 1 -> 2 ):
   e-/hole pair  1 alpha:  ampl =  0.006984 (  0.0%)   [8 : 9]
   e-/hole pair  2 alpha:  ampl =  0.005510 (  0.0%)   [7 : 10]
   e-/hole pair  1 beta :  ampl =  0.997328 ( 99.5%)   [8 : 9]
   e-/hole pair  2 beta :  ampl =  0.018013 (  0.0%)   [7 : 10]
   Sum of square amplitudes: 1.00

 NATURAL OCCUPATION NUMBERS (higher than 1.0E-05)
            1           2           3           4           5           6
    1   2.0000000   2.0000000   2.0000000   2.0000000   2.0000000   2.0000000
            7           8           9          10          11          12
    1   2.0000000   2.0000000   2.0000000   2.0000000   2.0000000   2.0000000
           13          14          15          16          17          18
    1   2.0000000   2.0000000   2.0000000   2.0000000   2.0000000   2.0000000
           19          20          21          22          23          24
    1   2.0000000   2.0000000   2.0000000   2.0000000   2.0000000   2.0000000
           25          26          27          28          29          30
    1   2.0000000   2.0000000   2.0000000   2.0000000   2.0000000   2.0000000
           31          32          33          34          35          36
    1   2.0000000   2.0000000   2.0000000   2.0000000   2.0000000   2.0000000
           37          38          39          40          41          42
    1   2.0000000   2.0000000   2.0000000   1.9999987   1.9999966   1.9999796
           43          44          45          46          47          48
    1   1.9998486   1.9998486   1.9995761   1.9990640   1.9987469   1.9987469
           49          50          51          52          53          54
    1   1.9966594   1.0029829   0.0009800   0.0009800   0.0008795   0.0007855
           55          56          57          58          59          60
    1   0.0006863   0.0000478   0.0000371   0.0000264   0.0000250   0.0000250
           61
    1   0.0000168

  Amplitudes : 
  
 | HOLE  | ALPHA    | BETA     | PART  |    AMPLITUDE 
--------------------------------------------------
 |       | 11111110 | 11101110 |       |     2.8905417780332E-01
 |       | 11111110 | 01111110 |       |    -9.5458189944416E-01
--------------------------------------------------
*** Contributions RASCI wfn    Active:  99.48
                                 Hole:   0.05
                                 Part:   0.47

      Mulliken population analysis 
 ---------------------------------------------------
   Atom    Charge (a.u.)   Spin (a.u.)  
 ---------------------------------------------------
   1 Cu    0.895493        0.953803 
   2 Cl   -0.723873        0.011549 
   3 Cl   -0.723873        0.011549 
   4 Cl   -0.723873        0.011549 
   5 Cl   -0.723873        0.011549 
 ---------------------------------------------------
   Sum:   -2.000000        1.000000 
 ---------------------------------------------------
 
  
 NATURAL OCCUPATION NUMBERS (higher than 1.0E-05)
            1           2           3           4           5           6
    1   2.0000000   2.0000000   2.0000000   2.0000000   2.0000000   2.0000000
            7           8           9          10          11          12
    1   2.0000000   2.0000000   2.0000000   2.0000000   2.0000000   2.0000000
           13          14          15          16          17          18
    1   2.0000000   2.0000000   2.0000000   2.0000000   2.0000000   2.0000000
           19          20          21          22          23          24
    1   2.0000000   2.0000000   2.0000000   2.0000000   2.0000000   2.0000000
           25          26          27          28          29          30
    1   2.0000000   2.0000000   2.0000000   2.0000000   2.0000000   2.0000000
           31          32          33          34          35          36
    1   2.0000000   2.0000000   2.0000000   2.0000000   2.0000000   2.0000000
           37          38          39          40          41          42
    1   2.0000000   2.0000000   2.0000000   1.9999987   1.9999966   1.9999796
           43          44          45          46          47          48
    1   1.9998486   1.9998486   1.9995761   1.9990640   1.9987469   1.9987469
           49          50          51          52          53          54
    1   1.9966594   1.0029829   0.0009800   0.0009800   0.0008795   0.0007855
           55          56          57          58          59          60
    1   0.0006863   0.0000478   0.0000371   0.0000264   0.0000250   0.0000250
           61
    1   0.0000168
  
*** Unpaired Electrons
 Yamaguchi Nd:         1.02
 Head-Gordon Nu:       1.01
 Head-Gordon Nu_nl:    1.00
  
**************************************************
 RAS-CI total energy for state   3:  -3477.139636837289
  Excitation energy (eV) =  1.094841880624
  Warning: not all configurations have same symmetry
  State symmetry: *B3u   (D2h      )
  <S^2>      :  0.7500
  Dipole Moment:   -0.0000 X     0.0000 Y     0.0000 Z
  Trans. Moment:    0.0000 X     0.0000 Y    -0.0000 Z
  Strength   :  0.000000
  Natural transition orbitals ( 1 -> 3 ):
   e-/hole pair  1 alpha:  ampl =  0.012238 (  0.0%)   [8 : 9]
   e-/hole pair  2 alpha:  ampl =  0.010228 (  0.0%)   [7 : 10]
   e-/hole pair  1 beta :  ampl =  0.996345 ( 99.3%)   [8 : 9]
   e-/hole pair  2 beta :  ampl =  0.019569 (  0.0%)   [7 : 10]
   Sum of square amplitudes: 0.99

 NATURAL OCCUPATION NUMBERS (higher than 1.0E-05)
            1           2           3           4           5           6
    1   2.0000000   2.0000000   2.0000000   2.0000000   2.0000000   2.0000000
            7           8           9          10          11          12
    1   2.0000000   2.0000000   2.0000000   2.0000000   2.0000000   2.0000000
           13          14          15          16          17          18
    1   2.0000000   2.0000000   2.0000000   2.0000000   2.0000000   2.0000000
           19          20          21          22          23          24
    1   2.0000000   2.0000000   2.0000000   2.0000000   2.0000000   2.0000000
           25          26          27          28          29          30
    1   2.0000000   2.0000000   2.0000000   2.0000000   2.0000000   2.0000000
           31          32          33          34          35          36
    1   2.0000000   2.0000000   2.0000000   2.0000000   2.0000000   2.0000000
           37          38          39          40          41          42
    1   2.0000000   2.0000000   1.9999999   1.9999996   1.9999979   1.9999929
           43          44          45          46          47          48
    1   1.9998968   1.9998242   1.9994652   1.9985825   1.9985725   1.9983804
           49          50          51          52          53          54
    1   1.9959370   1.0037534   0.0011495   0.0010926   0.0010787   0.0010674
           55          56          57          58          59          60
    1   0.0007724   0.0001521   0.0000546   0.0000494   0.0000369   0.0000267
           61          62          63
    1   0.0000209   0.0000178   0.0000157

  Amplitudes : 
  
 | HOLE  | ALPHA    | BETA     | PART  |    AMPLITUDE 
--------------------------------------------------
 |       | 11111110 | 11111010 |       |     2.6572971331105E-01
 |       | 11111110 | 11011110 |       |     9.3931648751117E-01
 |       | 11111110 | 10111110 |       |     1.9016618485261E-01
--------------------------------------------------
*** Contributions RASCI wfn    Active:  99.23
                                 Hole:   0.06
                                 Part:   0.71

      Mulliken population analysis 
 ---------------------------------------------------
   Atom    Charge (a.u.)   Spin (a.u.)  
 ---------------------------------------------------
   1 Cu    0.893070        0.957433 
   2 Cl   -0.732759        0.000225 
   3 Cl   -0.713776        0.021059 
   4 Cl   -0.713776        0.021059 
   5 Cl   -0.732759        0.000225 
 ---------------------------------------------------
   Sum:   -2.000000        1.000000 
 ---------------------------------------------------
 
  
 NATURAL OCCUPATION NUMBERS (higher than 1.0E-05)
            1           2           3           4           5           6
    1   2.0000000   2.0000000   2.0000000   2.0000000   2.0000000   2.0000000
            7           8           9          10          11          12
    1   2.0000000   2.0000000   2.0000000   2.0000000   2.0000000   2.0000000
           13          14          15          16          17          18
    1   2.0000000   2.0000000   2.0000000   2.0000000   2.0000000   2.0000000
           19          20          21          22          23          24
    1   2.0000000   2.0000000   2.0000000   2.0000000   2.0000000   2.0000000
           25          26          27          28          29          30
    1   2.0000000   2.0000000   2.0000000   2.0000000   2.0000000   2.0000000
           31          32          33          34          35          36
    1   2.0000000   2.0000000   2.0000000   2.0000000   2.0000000   2.0000000
           37          38          39          40          41          42
    1   2.0000000   2.0000000   1.9999999   1.9999996   1.9999979   1.9999929
           43          44          45          46          47          48
    1   1.9998968   1.9998242   1.9994652   1.9985825   1.9985725   1.9983804
           49          50          51          52          53          54
    1   1.9959370   1.0037534   0.0011495   0.0010926   0.0010787   0.0010674
           55          56          57          58          59          60
    1   0.0007724   0.0001521   0.0000546   0.0000494   0.0000369   0.0000267
           61          62          63
    1   0.0000209   0.0000178   0.0000157
  
*** Unpaired Electrons
 Yamaguchi Nd:         1.03
 Head-Gordon Nu:       1.01
 Head-Gordon Nu_nl:    1.00
  
**************************************************
 RAS-CI total energy for state   4:  -3477.139636836933
  Excitation energy (eV) =  1.094841890334
  Warning: not all configurations have same symmetry
  State symmetry: *B3u   (D2h      )
  <S^2>      :  0.7500
  Dipole Moment:    0.0000 X    -0.0000 Y    -0.0000 Z
  Trans. Moment:    0.0000 X     0.0000 Y    -0.0000 Z
  Strength   :  0.000000
  Natural transition orbitals ( 1 -> 4 ):
   e-/hole pair  1 alpha:  ampl =  0.012236 (  0.0%)   [8 : 9]
   e-/hole pair  2 alpha:  ampl =  0.010228 (  0.0%)   [7 : 10]
   e-/hole pair  1 beta :  ampl =  0.996345 ( 99.3%)   [8 : 9]
   e-/hole pair  2 beta :  ampl =  0.019573 (  0.0%)   [7 : 10]
   Sum of square amplitudes: 0.99

 NATURAL OCCUPATION NUMBERS (higher than 1.0E-05)
            1           2           3           4           5           6
    1   2.0000000   2.0000000   2.0000000   2.0000000   2.0000000   2.0000000
            7           8           9          10          11          12
    1   2.0000000   2.0000000   2.0000000   2.0000000   2.0000000   2.0000000
           13          14          15          16          17          18
    1   2.0000000   2.0000000   2.0000000   2.0000000   2.0000000   2.0000000
           19          20          21          22          23          24
    1   2.0000000   2.0000000   2.0000000   2.0000000   2.0000000   2.0000000
           25          26          27          28          29          30
    1   2.0000000   2.0000000   2.0000000   2.0000000   2.0000000   2.0000000
           31          32          33          34          35          36
    1   2.0000000   2.0000000   2.0000000   2.0000000   2.0000000   2.0000000
           37          38          39          40          41          42
    1   2.0000000   2.0000000   1.9999999   1.9999996   1.9999979   1.9999929
           43          44          45          46          47          48
    1   1.9998968   1.9998242   1.9994655   1.9985830   1.9985721   1.9983804
           49          50          51          52          53          54
    1   1.9959372   1.0037534   0.0011491   0.0010928   0.0010787   0.0010672
           55          56          57          58          59          60
    1   0.0007723   0.0001520   0.0000547   0.0000494   0.0000369   0.0000267
           61          62          63
    1   0.0000208   0.0000178   0.0000157

  Amplitudes : 
  
 | HOLE  | ALPHA    | BETA     | PART  |    AMPLITUDE 
--------------------------------------------------
 |       | 11111110 | 11110110 |       |     2.6572972980194E-01
 |       | 11111110 | 11011110 |       |    -1.9016625507581E-01
 |       | 11111110 | 10111110 |       |     9.3931682863665E-01
--------------------------------------------------
*** Contributions RASCI wfn    Active:  99.23
                                 Hole:   0.06
                                 Part:   0.71

      Mulliken population analysis 
 ---------------------------------------------------
   Atom    Charge (a.u.)   Spin (a.u.)  
 ---------------------------------------------------
   1 Cu    0.893069        0.957437 
   2 Cl   -0.713777        0.021057 
   3 Cl   -0.732758        0.000225 
   4 Cl   -0.732758        0.000225 
   5 Cl   -0.713777        0.021057 
 ---------------------------------------------------
   Sum:   -2.000000        1.000000 
 ---------------------------------------------------
 
  
 NATURAL OCCUPATION NUMBERS (higher than 1.0E-05)
            1           2           3           4           5           6
    1   2.0000000   2.0000000   2.0000000   2.0000000   2.0000000   2.0000000
            7           8           9          10          11          12
    1   2.0000000   2.0000000   2.0000000   2.0000000   2.0000000   2.0000000
           13          14          15          16          17          18
    1   2.0000000   2.0000000   2.0000000   2.0000000   2.0000000   2.0000000
           19          20          21          22          23          24
    1   2.0000000   2.0000000   2.0000000   2.0000000   2.0000000   2.0000000
           25          26          27          28          29          30
    1   2.0000000   2.0000000   2.0000000   2.0000000   2.0000000   2.0000000
           31          32          33          34          35          36
    1   2.0000000   2.0000000   2.0000000   2.0000000   2.0000000   2.0000000
           37          38          39          40          41          42
    1   2.0000000   2.0000000   1.9999999   1.9999996   1.9999979   1.9999929
           43          44          45          46          47          48
    1   1.9998968   1.9998242   1.9994655   1.9985830   1.9985721   1.9983804
           49          50          51          52          53          54
    1   1.9959372   1.0037534   0.0011491   0.0010928   0.0010787   0.0010672
           55          56          57          58          59          60
    1   0.0007723   0.0001520   0.0000547   0.0000494   0.0000369   0.0000267
           61          62          63
    1   0.0000208   0.0000178   0.0000157
  
*** Unpaired Electrons
 Yamaguchi Nd:         1.03
 Head-Gordon Nu:       1.01
 Head-Gordon Nu_nl:    1.00
  
**************************************************
 RAS-CI total energy for state   5:  -3477.129199269750
  Excitation energy (eV) =  1.378862543906
  Warning: not all configurations have same symmetry
  State symmetry: *Ag    (D2h      )
  <S^2>      :  0.7500
  Dipole Moment:   -0.0000 X     0.0000 Y     0.0000 Z
  Trans. Moment:    0.0000 X     0.0000 Y     0.0000 Z
  Strength   :  0.000000
  Natural transition orbitals ( 1 -> 5 ):
   e-/hole pair  1 alpha:  ampl =  0.017698 (  0.0%)   [8 : 9]
   e-/hole pair  2 alpha:  ampl =  0.006430 (  0.0%)   [7 : 10]
   e-/hole pair  1 beta :  ampl =  0.998866 ( 99.8%)   [8 : 9]
   e-/hole pair  2 beta :  ampl =  0.008889 (  0.0%)   [7 : 10]
   Sum of square amplitudes: 1.00

 NATURAL OCCUPATION NUMBERS (higher than 1.0E-05)
            1           2           3           4           5           6
    1   2.0000000   2.0000000   2.0000000   2.0000000   2.0000000   2.0000000
            7           8           9          10          11          12
    1   2.0000000   2.0000000   2.0000000   2.0000000   2.0000000   2.0000000
           13          14          15          16          17          18
    1   2.0000000   2.0000000   2.0000000   2.0000000   2.0000000   2.0000000
           19          20          21          22          23          24
    1   2.0000000   2.0000000   2.0000000   2.0000000   2.0000000   2.0000000
           25          26          27          28          29          30
    1   2.0000000   2.0000000   2.0000000   2.0000000   2.0000000   2.0000000
           31          32          33          34          35          36
    1   2.0000000   2.0000000   2.0000000   2.0000000   2.0000000   2.0000000
           37          38          39          40          41          42
    1   2.0000000   2.0000000   2.0000000   2.0000000   1.9999998   1.9999854
           43          44          45          46          47          48
    1   1.9999738   1.9999618   1.9999616   1.9996542   1.9996540   1.9993548
           49          50          51          52          53          54
    1   1.9990929   1.0011537   0.0006339   0.0002318   0.0002312   0.0000550
           55
    1   0.0000105

  Amplitudes : 
  
 | HOLE  | ALPHA    | BETA     | PART  |    AMPLITUDE 
--------------------------------------------------
 |  34   | 11111110 | 11111110 |       |    -9.7124563413817E-01
 |  35   | 11111110 | 11111110 |       |     2.3106928296224E-01
--------------------------------------------------
*** Contributions RASCI wfn    Active:   0.02
                                 Hole:  99.89
                                 Part:   0.09

      Mulliken population analysis 
 ---------------------------------------------------
   Atom    Charge (a.u.)   Spin (a.u.)  
 ---------------------------------------------------
   1 Cu    0.943971        0.994864 
   2 Cl   -0.735993        0.001284 
   3 Cl   -0.735993        0.001284 
   4 Cl   -0.735993        0.001284 
   5 Cl   -0.735993        0.001284 
 ---------------------------------------------------
   Sum:   -2.000000        1.000000 
 ---------------------------------------------------
 
  
 NATURAL OCCUPATION NUMBERS (higher than 1.0E-05)
            1           2           3           4           5           6
    1   2.0000000   2.0000000   2.0000000   2.0000000   2.0000000   2.0000000
            7           8           9          10          11          12
    1   2.0000000   2.0000000   2.0000000   2.0000000   2.0000000   2.0000000
           13          14          15          16          17          18
    1   2.0000000   2.0000000   2.0000000   2.0000000   2.0000000   2.0000000
           19          20          21          22          23          24
    1   2.0000000   2.0000000   2.0000000   2.0000000   2.0000000   2.0000000
           25          26          27          28          29          30
    1   2.0000000   2.0000000   2.0000000   2.0000000   2.0000000   2.0000000
           31          32          33          34          35          36
    1   2.0000000   2.0000000   2.0000000   2.0000000   2.0000000   2.0000000
           37          38          39          40          41          42
    1   2.0000000   2.0000000   2.0000000   2.0000000   1.9999998   1.9999854
           43          44          45          46          47          48
    1   1.9999738   1.9999618   1.9999616   1.9996542   1.9996540   1.9993548
           49          50          51          52          53          54
    1   1.9990929   1.0011537   0.0006339   0.0002318   0.0002312   0.0000550
           55
    1   0.0000105
  
*** Unpaired Electrons
 Yamaguchi Nd:         1.01
 Head-Gordon Nu:       1.00
 Head-Gordon Nu_nl:    1.00
  
**************************************************
 RAS-CI total energy for state   6:  -3476.972600138002
  Excitation energy (eV) =  5.640141725862
  Warning: not all configurations have same symmetry
  State symmetry: *B2g   (D2h      )
  <S^2>      :  0.7500
  Dipole Moment:   -0.0000 X     0.0000 Y     0.0000 Z
  Trans. Moment:   -0.0000 X     0.0000 Y     0.0000 Z
  Strength   :  0.000000
  Natural transition orbitals ( 1 -> 6 ):
   e-/hole pair  1 alpha:  ampl =  0.012807 (  0.0%)   [8 : 9]
   e-/hole pair  2 alpha:  ampl =  0.003534 (  0.0%)   [7 : 10]
   e-/hole pair  1 beta :  ampl =  0.898382 ( 80.7%)   [8 : 9]
   e-/hole pair  2 beta :  ampl =  0.039129 (  0.2%)   [7 : 10]
   Sum of square amplitudes: 0.81

 NATURAL OCCUPATION NUMBERS (higher than 1.0E-05)
            1           2           3           4           5           6
    1   2.0000000   2.0000000   2.0000000   2.0000000   2.0000000   2.0000000
            7           8           9          10          11          12
    1   2.0000000   2.0000000   2.0000000   2.0000000   2.0000000   2.0000000
           13          14          15          16          17          18
    1   2.0000000   2.0000000   2.0000000   2.0000000   2.0000000   2.0000000
           19          20          21          22          23          24
    1   2.0000000   2.0000000   2.0000000   2.0000000   2.0000000   2.0000000
           25          26          27          28          29          30
    1   2.0000000   2.0000000   2.0000000   2.0000000   2.0000000   2.0000000
           31          32          33          34          35          36
    1   2.0000000   2.0000000   2.0000000   2.0000000   2.0000000   2.0000000
           37          38          39          40          41          42
    1   2.0000000   1.9999995   1.9999971   1.9999907   1.9999833   1.9998506
           43          44          45          46          47          48
    1   1.9996893   1.9980022   1.9920150   1.9910243   1.9903016   1.9839945
           49          50          51          52          53          54
    1   1.9807223   1.0118174   0.0165169   0.0095831   0.0089798   0.0079443
           55          56          57          58          59          60
    1   0.0075706   0.0009175   0.0004154   0.0001616   0.0001481   0.0000608
           61          62          63          64          65          66
    1   0.0000531   0.0000375   0.0000350   0.0000322   0.0000235   0.0000234
           67          68          69
    1   0.0000209   0.0000189   0.0000170

  Amplitudes : 
  
 | HOLE  | ALPHA    | BETA     | PART  |    AMPLITUDE 
--------------------------------------------------
 |       | 11111110 | 11111010 |       |     8.2816796720803E-01
 |       | 11111110 | 11110110 |       |     1.6903257607441E-01
 |       | 11111110 | 11011110 |       |    -2.6407653230439E-01
 |  34   | 11111111 | 11111010 |       |     1.5628159820606E-01
 |  34   | 11111110 | 11111011 |       |    -1.5316923504431E-01
 |       | 11011110 | 11111010 |  56   |     1.0430497970358E-01
 |       | 01111110 | 11111010 |  60   |     1.0656770131577E-01
 |       | 11111110 | 01111010 |  60   |    -1.0520472900517E-01
--------------------------------------------------
*** Contributions RASCI wfn    Active:  79.20
                                 Hole:   5.12
                                 Part:  15.68

      Mulliken population analysis 
 ---------------------------------------------------
   Atom    Charge (a.u.)   Spin (a.u.)  
 ---------------------------------------------------
   1 Cu    0.128615        0.052256 
   2 Cl   -0.737608        0.017985 
   3 Cl   -0.326699        0.455887 
   4 Cl   -0.326699        0.455887 
   5 Cl   -0.737608        0.017985 
 ---------------------------------------------------
   Sum:   -2.000000        1.000000 
 ---------------------------------------------------
 
  
 NATURAL OCCUPATION NUMBERS (higher than 1.0E-05)
            1           2           3           4           5           6
    1   2.0000000   2.0000000   2.0000000   2.0000000   2.0000000   2.0000000
            7           8           9          10          11          12
    1   2.0000000   2.0000000   2.0000000   2.0000000   2.0000000   2.0000000
           13          14          15          16          17          18
    1   2.0000000   2.0000000   2.0000000   2.0000000   2.0000000   2.0000000
           19          20          21          22          23          24
    1   2.0000000   2.0000000   2.0000000   2.0000000   2.0000000   2.0000000
           25          26          27          28          29          30
    1   2.0000000   2.0000000   2.0000000   2.0000000   2.0000000   2.0000000
           31          32          33          34          35          36
    1   2.0000000   2.0000000   2.0000000   2.0000000   2.0000000   2.0000000
           37          38          39          40          41          42
    1   2.0000000   1.9999995   1.9999971   1.9999907   1.9999833   1.9998506
           43          44          45          46          47          48
    1   1.9996893   1.9980022   1.9920150   1.9910243   1.9903016   1.9839945
           49          50          51          52          53          54
    1   1.9807223   1.0118174   0.0165169   0.0095831   0.0089798   0.0079443
           55          56          57          58          59          60
    1   0.0075706   0.0009175   0.0004154   0.0001616   0.0001481   0.0000608
           61          62          63          64          65          66
    1   0.0000531   0.0000375   0.0000350   0.0000322   0.0000235   0.0000234
           67          68          69
    1   0.0000209   0.0000189   0.0000170
  
*** Unpaired Electrons
 Yamaguchi Nd:         1.23
 Head-Gordon Nu:       1.11
 Head-Gordon Nu_nl:    1.01
  
**************************************************
 RAS-CI total energy for state   7:  -3476.972600126833
  Excitation energy (eV) =  5.640142029794
  Warning: not all configurations have same symmetry
  State symmetry: *B3g   (D2h      )
  <S^2>      :  0.7500
  Dipole Moment:   -0.0000 X     0.0000 Y    -0.0000 Z
  Trans. Moment:   -0.0000 X    -0.0000 Y     0.0000 Z
  Strength   :  0.000000
  Natural transition orbitals ( 1 -> 7 ):
   e-/hole pair  1 alpha:  ampl =  0.012793 (  0.0%)   [8 : 9]
   e-/hole pair  2 alpha:  ampl =  0.003533 (  0.0%)   [7 : 10]
   e-/hole pair  1 beta :  ampl =  0.898382 ( 80.7%)   [8 : 9]
   e-/hole pair  2 beta :  ampl =  0.039132 (  0.2%)   [7 : 10]
   Sum of square amplitudes: 0.81

 NATURAL OCCUPATION NUMBERS (higher than 1.0E-05)
            1           2           3           4           5           6
    1   2.0000000   2.0000000   2.0000000   2.0000000   2.0000000   2.0000000
            7           8           9          10          11          12
    1   2.0000000   2.0000000   2.0000000   2.0000000   2.0000000   2.0000000
           13          14          15          16          17          18
    1   2.0000000   2.0000000   2.0000000   2.0000000   2.0000000   2.0000000
           19          20          21          22          23          24
    1   2.0000000   2.0000000   2.0000000   2.0000000   2.0000000   2.0000000
           25          26          27          28          29          30
    1   2.0000000   2.0000000   2.0000000   2.0000000   2.0000000   2.0000000
           31          32          33          34          35          36
    1   2.0000000   2.0000000   2.0000000   2.0000000   2.0000000   2.0000000
           37          38          39          40          41          42
    1   2.0000000   1.9999995   1.9999969   1.9999906   1.9999833   1.9998505
           43          44          45          46          47          48
    1   1.9996895   1.9980019   1.9920158   1.9910248   1.9903001   1.9839983
           49          50          51          52          53          54
    1   1.9807234   1.0118151   0.0165144   0.0095844   0.0089808   0.0079432
           55          56          57          58          59          60
    1   0.0075698   0.0009172   0.0004155   0.0001616   0.0001481   0.0000609
           61          62          63          64          65          66
    1   0.0000531   0.0000376   0.0000351   0.0000321   0.0000235   0.0000234
           67          68          69
    1   0.0000210   0.0000189   0.0000170

  Amplitudes : 
  
 | HOLE  | ALPHA    | BETA     | PART  |    AMPLITUDE 
--------------------------------------------------
 |       | 11111110 | 11111010 |       |    -1.6903261213855E-01
 |       | 11111110 | 11110110 |       |     8.2816814380042E-01
 |       | 11111110 | 10111110 |       |    -2.6407674807823E-01
 |  34   | 11111111 | 11110110 |       |     1.5625189560148E-01
 |  34   | 11111110 | 11110111 |       |    -1.5320252075403E-01
 |       | 10111110 | 11110110 |  55   |     1.0431576446952E-01
 |       | 01111110 | 11110110 |  60   |     1.0657521295336E-01
 |       | 11111110 | 01110110 |  60   |    -1.0522020082791E-01
--------------------------------------------------
*** Contributions RASCI wfn    Active:  79.20
                                 Hole:   5.12
                                 Part:  15.68

      Mulliken population analysis 
 ---------------------------------------------------
   Atom    Charge (a.u.)   Spin (a.u.)  
 ---------------------------------------------------
   1 Cu    0.128635        0.052243 
   2 Cl   -0.326706        0.455892 
   3 Cl   -0.737612        0.017987 
   4 Cl   -0.737612        0.017987 
   5 Cl   -0.326706        0.455892 
 ---------------------------------------------------
   Sum:   -2.000000        1.000000 
 ---------------------------------------------------
 
  
 NATURAL OCCUPATION NUMBERS (higher than 1.0E-05)
            1           2           3           4           5           6
    1   2.0000000   2.0000000   2.0000000   2.0000000   2.0000000   2.0000000
            7           8           9          10          11          12
    1   2.0000000   2.0000000   2.0000000   2.0000000   2.0000000   2.0000000
           13          14          15          16          17          18
    1   2.0000000   2.0000000   2.0000000   2.0000000   2.0000000   2.0000000
           19          20          21          22          23          24
    1   2.0000000   2.0000000   2.0000000   2.0000000   2.0000000   2.0000000
           25          26          27          28          29          30
    1   2.0000000   2.0000000   2.0000000   2.0000000   2.0000000   2.0000000
           31          32          33          34          35          36
    1   2.0000000   2.0000000   2.0000000   2.0000000   2.0000000   2.0000000
           37          38          39          40          41          42
    1   2.0000000   1.9999995   1.9999969   1.9999906   1.9999833   1.9998505
           43          44          45          46          47          48
    1   1.9996895   1.9980019   1.9920158   1.9910248   1.9903001   1.9839983
           49          50          51          52          53          54
    1   1.9807234   1.0118151   0.0165144   0.0095844   0.0089808   0.0079432
           55          56          57          58          59          60
    1   0.0075698   0.0009172   0.0004155   0.0001616   0.0001481   0.0000609
           61          62          63          64          65          66
    1   0.0000531   0.0000376   0.0000351   0.0000321   0.0000235   0.0000234
           67          68          69
    1   0.0000210   0.0000189   0.0000170
  
*** Unpaired Electrons
 Yamaguchi Nd:         1.23
 Head-Gordon Nu:       1.11
 Head-Gordon Nu_nl:    1.01
  
**************************************************
 RAS-CI total energy for state   8:  -3476.936564004072
  Excitation energy (eV) =  6.620734821107
  Warning: not all configurations have same symmetry
  State symmetry: *Au    (D2h      )
  <S^2>      :  0.7500
  Dipole Moment:    0.0000 X     0.0000 Y    -0.0000 Z
  Trans. Moment:    0.0000 X    -0.0000 Y     0.0000 Z
  Strength   :  0.000000
  Natural transition orbitals ( 1 -> 8 ):
   e-/hole pair  1 alpha:  ampl =  0.020498 (  0.0%)   [8 : 9]
   e-/hole pair  2 alpha:  ampl =  0.004810 (  0.0%)   [7 : 10]
   e-/hole pair  1 beta :  ampl =  0.891218 ( 79.4%)   [8 : 9]
   e-/hole pair  2 beta :  ampl =  0.095477 (  0.9%)   [7 : 10]
   Sum of square amplitudes: 0.80

 NATURAL OCCUPATION NUMBERS (higher than 1.0E-05)
            1           2           3           4           5           6
    1   2.0000000   2.0000000   2.0000000   2.0000000   2.0000000   2.0000000
            7           8           9          10          11          12
    1   2.0000000   2.0000000   2.0000000   2.0000000   2.0000000   2.0000000
           13          14          15          16          17          18
    1   2.0000000   2.0000000   2.0000000   2.0000000   2.0000000   2.0000000
           19          20          21          22          23          24
    1   2.0000000   2.0000000   2.0000000   2.0000000   2.0000000   2.0000000
           25          26          27          28          29          30
    1   2.0000000   2.0000000   2.0000000   2.0000000   2.0000000   2.0000000
           31          32          33          34          35          36
    1   2.0000000   2.0000000   2.0000000   2.0000000   2.0000000   2.0000000
           37          38          39          40          41          42
    1   2.0000000   2.0000000   1.9999998   1.9999977   1.9999800   1.9996292
           43          44          45          46          47          48
    1   1.9996292   1.9908299   1.9908299   1.9870634   1.9809404   1.9769905
           49          50          51          52          53          54
    1   1.9687291   1.0329265   0.0363175   0.0091145   0.0090964   0.0090964
           55          56          57          58          59          60
    1   0.0080880   0.0001436   0.0001436   0.0001072   0.0000950   0.0000424
           61          62          63          64          65          66
    1   0.0000275   0.0000275   0.0000214   0.0000183   0.0000127   0.0000124
           67          68          69
    1   0.0000120   0.0000119   0.0000119

  Amplitudes : 
  
 | HOLE  | ALPHA    | BETA     | PART  |    AMPLITUDE 
--------------------------------------------------
 |       | 11111110 | 11101110 |       |     8.3626291322766E-01
 |       | 11111110 | 01111110 |       |     2.8039487407700E-01
 |  34   | 11111111 | 11101110 |       |     1.5903191500940E-01
 |  34   | 11111110 | 11101111 |       |    -1.5737713514602E-01
 |  43   | 11111101 | 11111110 |       |     1.1603341311465E-01
 |       | 01111110 | 11101110 |  60   |     1.1230650981702E-01
 |       | 11111110 | 01101110 |  60   |    -1.0644137570916E-01
--------------------------------------------------
*** Contributions RASCI wfn    Active:  77.80
                                 Hole:   7.39
                                 Part:  14.81

      Mulliken population analysis 
 ---------------------------------------------------
   Atom    Charge (a.u.)   Spin (a.u.)  
 ---------------------------------------------------
   1 Cu    0.113460        0.037874 
   2 Cl   -0.528365        0.240531 
   3 Cl   -0.528365        0.240531 
   4 Cl   -0.528365        0.240531 
   5 Cl   -0.528365        0.240531 
 ---------------------------------------------------
   Sum:   -2.000000        1.000000 
 ---------------------------------------------------
 
  
 NATURAL OCCUPATION NUMBERS (higher than 1.0E-05)
            1           2           3           4           5           6
    1   2.0000000   2.0000000   2.0000000   2.0000000   2.0000000   2.0000000
            7           8           9          10          11          12
    1   2.0000000   2.0000000   2.0000000   2.0000000   2.0000000   2.0000000
           13          14          15          16          17          18
    1   2.0000000   2.0000000   2.0000000   2.0000000   2.0000000   2.0000000
           19          20          21          22          23          24
    1   2.0000000   2.0000000   2.0000000   2.0000000   2.0000000   2.0000000
           25          26          27          28          29          30
    1   2.0000000   2.0000000   2.0000000   2.0000000   2.0000000   2.0000000
           31          32          33          34          35          36
    1   2.0000000   2.0000000   2.0000000   2.0000000   2.0000000   2.0000000
           37          38          39          40          41          42
    1   2.0000000   2.0000000   1.9999998   1.9999977   1.9999800   1.9996292
           43          44          45          46          47          48
    1   1.9996292   1.9908299   1.9908299   1.9870634   1.9809404   1.9769905
           49          50          51          52          53          54
    1   1.9687291   1.0329265   0.0363175   0.0091145   0.0090964   0.0090964
           55          56          57          58          59          60
    1   0.0080880   0.0001436   0.0001436   0.0001072   0.0000950   0.0000424
           61          62          63          64          65          66
    1   0.0000275   0.0000275   0.0000214   0.0000183   0.0000127   0.0000124
           67          68          69
    1   0.0000120   0.0000119   0.0000119
  
*** Unpaired Electrons
 Yamaguchi Nd:         1.35
 Head-Gordon Nu:       1.14
 Head-Gordon Nu_nl:    1.01
  
**************************************************
 RAS-CI total energy for state   9:  -3476.898539832302
  Excitation energy (eV) =  7.655425178386
  Warning: not all configurations have same symmetry
  State symmetry: *B2u   (D2h      )
  <S^2>      :  0.7500
  Dipole Moment:   -0.0000 X     0.0000 Y     0.0000 Z
  Trans. Moment:   -0.0000 X    -0.0000 Y     0.0000 Z
  Strength   :  0.000000
  Natural transition orbitals ( 1 -> 9 ):
   e-/hole pair  1 alpha:  ampl =  0.374802 ( 14.0%)   [8 : 9]
   e-/hole pair  2 alpha:  ampl =  0.011536 (  0.0%)   [7 : 10]
   e-/hole pair  1 beta :  ampl =  0.663762 ( 44.1%)   [8 : 9]
   e-/hole pair  2 beta :  ampl =  0.041613 (  0.2%)   [7 : 10]
   Sum of square amplitudes: 0.58

 NATURAL OCCUPATION NUMBERS (higher than 1.0E-05)
            1           2           3           4           5           6
    1   2.0000000   2.0000000   2.0000000   2.0000000   2.0000000   2.0000000
            7           8           9          10          11          12
    1   2.0000000   2.0000000   2.0000000   2.0000000   2.0000000   2.0000000
           13          14          15          16          17          18
    1   2.0000000   2.0000000   2.0000000   2.0000000   2.0000000   2.0000000
           19          20          21          22          23          24
    1   2.0000000   2.0000000   2.0000000   2.0000000   2.0000000   2.0000000
           25          26          27          28          29          30
    1   2.0000000   2.0000000   2.0000000   2.0000000   2.0000000   2.0000000
           31          32          33          34          35          36
    1   2.0000000   2.0000000   2.0000000   2.0000000   2.0000000   2.0000000
           37          38          39          40          41          42
    1   2.0000000   1.9999945   1.9999776   1.9999558   1.9998357   1.9995736
           43          44          45          46          47          48
    1   1.9994502   1.9987158   1.9909841   1.9906193   1.8996959   1.8982278
           49          50          51          52          53          54
    1   1.1126541   1.1032819   0.9880755   0.0068386   0.0032225   0.0026694
           55          56          57          58          59          60
    1   0.0025497   0.0011317   0.0009168   0.0004905   0.0002659   0.0002499
           61          62          63          64          65          66
    1   0.0001114   0.0001105   0.0001069   0.0000811   0.0000475   0.0000313
           67          68          69          70
    1   0.0000188   0.0000152   0.0000133   0.0000130

  Amplitudes : 
  
 | HOLE  | ALPHA    | BETA     | PART  |    AMPLITUDE 
--------------------------------------------------
 |       | 11111110 | 11110101 |       |     4.7628321242971E-01
 |       | 11111110 | 10111101 |       |     4.2886691160965E-01
 |       | 11111101 | 11110110 |       |     2.0814246726581E-01
 |       | 11111101 | 10111110 |       |     1.8635735587718E-01
 |       | 11110111 | 11111100 |       |    -2.6814074516464E-01
 |       | 10111111 | 11111100 |       |    -2.4250955573342E-01
 |  39   | 11111111 | 10111110 |       |     1.7573314168622E-01
 |  39   | 11111110 | 10111111 |       |    -4.3599069165408E-01
 |  39   | 10111111 | 11111110 |       |    -2.6025754996883E-01
--------------------------------------------------
*** Contributions RASCI wfn    Active:  65.27
                                 Hole:  31.20
                                 Part:   3.53

      Mulliken population analysis 
 ---------------------------------------------------
   Atom    Charge (a.u.)   Spin (a.u.)  
 ---------------------------------------------------
   1 Cu    0.039201        0.396585 
   2 Cl   -0.446946        0.187274 
   3 Cl   -0.572654        0.114434 
   4 Cl   -0.572653        0.114435 
   5 Cl   -0.446947        0.187273 
 ---------------------------------------------------
   Sum:   -2.000000        1.000000 
 ---------------------------------------------------
 
  
 NATURAL OCCUPATION NUMBERS (higher than 1.0E-05)
            1           2           3           4           5           6
    1   2.0000000   2.0000000   2.0000000   2.0000000   2.0000000   2.0000000
            7           8           9          10          11          12
    1   2.0000000   2.0000000   2.0000000   2.0000000   2.0000000   2.0000000
           13          14          15          16          17          18
    1   2.0000000   2.0000000   2.0000000   2.0000000   2.0000000   2.0000000
           19          20          21          22          23          24
    1   2.0000000   2.0000000   2.0000000   2.0000000   2.0000000   2.0000000
           25          26          27          28          29          30
    1   2.0000000   2.0000000   2.0000000   2.0000000   2.0000000   2.0000000
           31          32          33          34          35          36
    1   2.0000000   2.0000000   2.0000000   2.0000000   2.0000000   2.0000000
           37          38          39          40          41          42
    1   2.0000000   1.9999945   1.9999776   1.9999558   1.9998357   1.9995736
           43          44          45          46          47          48
    1   1.9994502   1.9987158   1.9909841   1.9906193   1.8996959   1.8982278
           49          50          51          52          53          54
    1   1.1126541   1.1032819   0.9880755   0.0068386   0.0032225   0.0026694
           55          56          57          58          59          60
    1   0.0025497   0.0011317   0.0009168   0.0004905   0.0002659   0.0002499
           61          62          63          64          65          66
    1   0.0001114   0.0001105   0.0001069   0.0000811   0.0000475   0.0000313
           67          68          69          70
    1   0.0000188   0.0000152   0.0000133   0.0000130
  
*** Unpaired Electrons
 Yamaguchi Nd:         3.44
 Head-Gordon Nu:       3.01
 Head-Gordon Nu_nl:    3.03
  
**************************************************
 RAS-CI total energy for state  10:  -3476.898539777170
  Excitation energy (eV) =  7.655426678594
  Warning: not all configurations have same symmetry
  State symmetry: *B3u   (D2h      )
  <S^2>      :  0.7500
  Dipole Moment:   -0.0000 X    -0.0000 Y     0.0000 Z
  Trans. Moment:   -0.0000 X     0.0000 Y     0.0000 Z
  Strength   :  0.000000
  Natural transition orbitals ( 1 -> 10 ):
   e-/hole pair  1 alpha:  ampl =  0.374939 ( 14.1%)   [8 : 9]
   e-/hole pair  2 alpha:  ampl =  0.011548 (  0.0%)   [7 : 10]
   e-/hole pair  1 beta :  ampl =  0.663810 ( 44.1%)   [8 : 9]
   e-/hole pair  2 beta :  ampl =  0.041623 (  0.2%)   [7 : 10]
   Sum of square amplitudes: 0.58

 NATURAL OCCUPATION NUMBERS (higher than 1.0E-05)
            1           2           3           4           5           6
    1   2.0000000   2.0000000   2.0000000   2.0000000   2.0000000   2.0000000
            7           8           9          10          11          12
    1   2.0000000   2.0000000   2.0000000   2.0000000   2.0000000   2.0000000
           13          14          15          16          17          18
    1   2.0000000   2.0000000   2.0000000   2.0000000   2.0000000   2.0000000
           19          20          21          22          23          24
    1   2.0000000   2.0000000   2.0000000   2.0000000   2.0000000   2.0000000
           25          26          27          28          29          30
    1   2.0000000   2.0000000   2.0000000   2.0000000   2.0000000   2.0000000
           31          32          33          34          35          36
    1   2.0000000   2.0000000   2.0000000   2.0000000   2.0000000   2.0000000
           37          38          39          40          41          42
    1   2.0000000   1.9999944   1.9999783   1.9999575   1.9998358   1.9995745
           43          44          45          46          47          48
    1   1.9994521   1.9987185   1.9909933   1.9906291   1.8997038   1.8982423
           49          50          51          52          53          54
    1   1.1126341   1.1032593   0.9880607   0.0068446   0.0032231   0.0026703
           55          56          57          58          59          60
    1   0.0025501   0.0011321   0.0009168   0.0004904   0.0002662   0.0002499
           61          62          63          64          65          66
    1   0.0001115   0.0001104   0.0001070   0.0000809   0.0000473   0.0000313
           67          68          69          70
    1   0.0000187   0.0000154   0.0000133   0.0000130

  Amplitudes : 
  
 | HOLE  | ALPHA    | BETA     | PART  |    AMPLITUDE 
--------------------------------------------------
 |       | 11111110 | 11111001 |       |    -4.7633137944251E-01
 |       | 11111110 | 11011101 |       |    -4.2887456145324E-01
 |       | 11111101 | 11111010 |       |    -2.0796214980806E-01
 |       | 11111101 | 11011110 |       |    -1.8643005036244E-01
 |       | 11111011 | 11111100 |       |     2.6836922963468E-01
 |       | 11011111 | 11111100 |       |     2.4244451109098E-01
 |  39   | 11111111 | 11011110 |       |    -1.7585307192563E-01
 |  39   | 11111110 | 11011111 |       |     4.3592824293078E-01
 |  39   | 11011111 | 11111110 |       |     2.6007517100538E-01
--------------------------------------------------
*** Contributions RASCI wfn    Active:  65.28
                                 Hole:  31.19
                                 Part:   3.53

      Mulliken population analysis 
 ---------------------------------------------------
   Atom    Charge (a.u.)   Spin (a.u.)  
 ---------------------------------------------------
   1 Cu    0.039241        0.396994 
   2 Cl   -0.572624        0.114382 
   3 Cl   -0.446996        0.187122 
   4 Cl   -0.446996        0.187122 
   5 Cl   -0.572624        0.114381 
 ---------------------------------------------------
   Sum:   -2.000000        1.000000 
 ---------------------------------------------------
 
  
 NATURAL OCCUPATION NUMBERS (higher than 1.0E-05)
            1           2           3           4           5           6
    1   2.0000000   2.0000000   2.0000000   2.0000000   2.0000000   2.0000000
            7           8           9          10          11          12
    1   2.0000000   2.0000000   2.0000000   2.0000000   2.0000000   2.0000000
           13          14          15          16          17          18
    1   2.0000000   2.0000000   2.0000000   2.0000000   2.0000000   2.0000000
           19          20          21          22          23          24
    1   2.0000000   2.0000000   2.0000000   2.0000000   2.0000000   2.0000000
           25          26          27          28          29          30
    1   2.0000000   2.0000000   2.0000000   2.0000000   2.0000000   2.0000000
           31          32          33          34          35          36
    1   2.0000000   2.0000000   2.0000000   2.0000000   2.0000000   2.0000000
           37          38          39          40          41          42
    1   2.0000000   1.9999944   1.9999783   1.9999575   1.9998358   1.9995745
           43          44          45          46          47          48
    1   1.9994521   1.9987185   1.9909933   1.9906291   1.8997038   1.8982423
           49          50          51          52          53          54
    1   1.1126341   1.1032593   0.9880607   0.0068446   0.0032231   0.0026703
           55          56          57          58          59          60
    1   0.0025501   0.0011321   0.0009168   0.0004904   0.0002662   0.0002499
           61          62          63          64          65          66
    1   0.0001115   0.0001104   0.0001070   0.0000809   0.0000473   0.0000313
           67          68          69          70
    1   0.0000187   0.0000154   0.0000133   0.0000130
  
*** Unpaired Electrons
 Yamaguchi Nd:         3.44
 Head-Gordon Nu:       3.01
 Head-Gordon Nu_nl:    3.03
  
--------------------------------------------------
 Interstate Transition Properties
--------------------------------------------------
State A: Root  1
State B: Root  2
  
Angular momentum components
< B | Lx | A > =     0.000000040i
< B | Ly | A > =     0.000000017i
< B | Lz | A > =     1.817698114i
  
Norm of one-particle transition density matrix
||gamma^AB||_total       =  0.997610
||gamma^AB||_symmetrized =  0.705435
||gamma^AB||_anti-symm   =  0.705398
  
Spin-orbit couplings
 Using HF (reference) density for the 2-elec mean-field SOC contribution
KET: S',Sz' (Root   1) =  0.500 0.500
BRA: S ,Sz  (Root   2) =  0.500 0.500
Clebsh-Gordan coefficient: < 0.500, 0.500; 1.000, 0.000| 0.500, 0.500> =  0.577
 Computing 1e-SO integrals
 1e Reduced matrix elements (cm-1)
<S|| Hso(L-) ||S'> =     0.0004194743    -0.0000857073
<S|| Hso(L0) ||S'> =     0.0000000000 -2330.2176790339
<S|| Hso(L+) ||S'> =     0.0004194743     0.0000857073
 1-elec SOC matrix (cm-1): < B(S,Sz) | Hso(1e) | A(S',Sz') >
                     |Sz'=-0.50>              |Sz'= 0.50>
 <Sz=-0.50|    0.000000 1345.351804i     0.000342    0.000070i
 <Sz= 0.50|   -0.000342    0.000070i     0.000000 ***********i
1-elec SOCC =  1902.614767749 cm-1
 Computing 2e-SOMF integrals
 Averagin spin alpha/beta reference densities
[...]
   102    2.792250598931e-12
   103    1.090203722795e-02
   104    6.702856609941e-16
   105    1.843277200912e-13
   106   -3.573660284081e-02
   107    8.663673262200e-13
   108    6.410348103325e-02
   109    4.390455931131e-15
   110    6.043099087118e-13
   111   -1.294332115767e-01
   112    8.043734746825e-12
   113    5.036614021567e-15
   114    1.564683356113e-13
   115   -1.817018902319e-04
   116    1.327849788924e-14
   117   -3.844123286280e-16
   118   -1.759625424176e-13
   119    6.077829716163e-03
   120   -1.444598304553e-02
   121   -7.532538387262e-03
   122    9.426609102847e-02
   123   -2.874061233689e-01
   124    2.239177844521e-01
   125   -5.306307425331e-12
   126    7.760510379415e-02
   127   -2.153992560712e-13
   128   -1.585054029272e-12
   129    1.819627975627e-02
   130   -2.355157596629e-14
   131    2.684621961433e-12
   132   -1.972029224126e-02
   133   -6.366430477754e-14
   134    3.367427025796e-11
   135   -5.559747753037e-01
   136    1.894396472372e-12
   137   -3.333641884824e-11
   138    6.391517382031e-01
   139   -2.643656368309e-12
   140   -1.090203724693e-02
   141   -7.284984173233e-16
   142    2.063879948905e-13
   143    3.573660283951e-02
   144   -4.513200884502e-13
   145   -6.410348108320e-02
   146   -1.833282492885e-15
   147    6.369378052869e-13
   148    1.294332115947e-01
   149   -5.051270886758e-12
   150   -7.089298429623e-15
   151    1.518680584290e-13
   152   -1.817018888029e-04
   153   -2.171030527963e-14
   154   -2.827465201056e-16
   155   -4.667054038660e-13
   156    6.077829718466e-03
   157   -9.108576481335e-13
   158   -3.086396244620e-13
   159    6.036628052080e-12
   160   -1.796125924471e-11
   161   -5.213494242302e-11
   162    1.355064148756e-11
   163   -7.410554646699e-02
   164    1.840103877984e-14
   165    2.899539990567e-12
   166   -1.884602211097e-02
   167    2.716581725792e-15
   168   -8.858330281959e-13
   169    2.773741696333e-02
   170    1.185318595004e-15
   171   -1.155873765198e-10
   172    4.959247183390e-01
   173   -1.433807049515e-13
   174    1.461459230877e-10
   175   -4.929913053035e-01
   176    1.538052288290e-13
   177    8.130507972391e-12
   178   -1.699854317015e-15
   179   -6.627533853819e-15
   180   -8.317150543469e-12
   181   -4.140733871343e-02
   182    9.425669740168e-12
   183   -1.539968174999e-14
   184    6.939344958739e-14
   185   -1.196397411811e-11
   186   -1.841182075386e-01
   187    4.871241312540e-16
   188   -1.329494494176e-12
   189    1.412829606717e-03
   190   -8.476827272807e-16
   191    3.524459333662e-15
   192    7.782224022593e-13
   193   -4.490643923203e-03
Sym=X
Ene= 0.845943
Spin=Alpha
Occup=0
     1    5.467531482633e-15
     2   -1.132164837156e-14
     3    5.319540262275e-14
     4   -1.192957713405e-14
     5    4.909108030674e-13
     6   -1.264252433075e-13
     7    6.068229273496e-14
     8    3.385567809960e-15
     9    2.075483510561e-13
    10   -1.752569989542e-13
    11   -9.730470550247e-15
    12   -5.691225023458e-13
    13    3.050470729053e-16
    14   -2.294486811262e-16
    15   -4.053871212253e-13
    16   -4.215838377499e-13
    17   -1.940985529887e-14
    18    5.530576486305e-12
    19    2.981839245635e-14
    20    5.692154792297e-02
    21    1.632815010370e-13
    22    5.456385071723e-15
    23    9.894288288506e-17
    24    4.222876944890e-14
    25    6.254928827997e-02
    26    3.177947222562e-13
    27    2.572334322778e-16
    28   -4.362636935816e-15
    29   -1.907564605476e-13
    30   -2.014686331502e-01
    31   -1.292582559475e-12
    32    9.873884386549e-15
    33    2.047569323474e-14
    34    2.741138600797e-13
    35   -3.367262963479e-01
    36    1.744909297094e-12
    37   -1.369552545024e-14
    38    5.102203355649e-14
    39    7.516483107740e-15
    40    3.813935823346e-15
    41    1.253066901062e-16
    42   -2.170593661969e-14
    43   -6.032153614329e-15
    44   -9.575092407478e-15
    45    6.066505880689e-16
    46   -3.125918737761e-14
    47   -1.879514332196e-14
    48    2.029087299369e-13
    49   -5.913442836142e-13
    50    4.643806569699e-13
    51   -1.488314438557e-13
    52   -2.876106802252e-15
    53    8.927600686365e-02
    54   -3.739342479568e-14
    55   -3.720745941992e-16
    56    8.191177639344e-03
    57    5.714540806311e-14
    58    3.683118271028e-16
    59    2.871985843353e-02
    60    9.956380852656e-13
    61    2.020166501281e-14
    62   -7.835106932087e-01
    63   -1.071557947998e-12
    64   -3.307605719919e-14
    65    1.065536234247e+00
    66    7.685469460765e-15
    67    6.687300316539e-02
    68   -9.405711112680e-13
    69   -6.201405890638e-14
    70   -5.515700289721e-15
    71   -9.948096770120e-14
    72    2.357181094108e-01
    73   -2.237340198855e-12
    74   -2.639123269120e-13
    75   -2.579346362222e-14
    76    2.222611837576e-03
    77   -2.486829215454e-14
    78    3.693962755827e-16
    79   -3.430090145359e-03
    80    4.381050502706e-13
    81    1.669944313173e-14
    82    1.192261372747e-15
    83    3.683640197243e-15
    84    1.956734485975e-15
    85   -2.394578785965e-14
    86    7.236082899237e-14
    87   -1.415280628185e-14
    88    1.986005628938e-13
    89    3.077202815657e-14
    90   -1.555084820394e-12
    91    4.803645934494e-14
    92    7.828916146577e-15
    93   -1.850115163664e-13
    94   -6.424804429522e-14
    95   -9.215209806523e-15
    96   -3.195205959299e-13
    97   -1.359125868714e-12
    98   -2.256972045109e-13
    99    1.302556191452e-11
   100    1.376445823625e-12
   101    2.905742797206e-13
   102   -1.623445345979e-11
   103    7.182178836082e-15
   104    4.126283109876e-03
   105   -7.120237675685e-13
   106   -2.710028682302e-14
   107   -1.007053242288e-13
   108    5.243217448458e-14
   109    3.846726029367e-02
   110   -2.873584777634e-12
   111   -5.770770631280e-14
   112   -4.450167069892e-13
   113   -8.044115372610e-14
   114   -3.877792153733e-15
   115   -2.204410615883e-15
   116   -1.361967223007e-14
   117   -8.522449664734e-04
   118   -1.060885274059e-14
   119   -1.338268686258e-15
   120    6.974634771663e-15
   121    3.510581024640e-15
   122   -4.510751408846e-14
   123    1.369918939088e-13
   124   -6.556774943706e-14
   125    2.282440985412e-13
   126   -5.204516982887e-14
   127   -1.933070169167e-12
   128    5.450978029266e-14
   129   -1.335624846312e-14
   130   -2.484410706458e-13
   131   -6.957170185590e-14
   132    1.723233562724e-14
   133   -3.046938366871e-13
   134   -1.580159284503e-12
   135    3.730048073477e-13
   136    1.582125147713e-11
   137    1.649673009713e-12
   138   -4.632746532223e-13
   139   -1.831382824760e-11
   140    8.478360512904e-15
   141    4.126283110493e-03
   142    6.855632828670e-13
   143   -3.488357634143e-14
   144    9.697682663801e-14
   145    6.579955377121e-14
   146    3.846726029602e-02
   147    3.052268840969e-12
   148   -8.388112882857e-14
   149    4.341276259065e-13
   150   -4.352087443001e-14
   151   -4.535163623881e-15
   152    1.617446976202e-15
   153   -1.296092266485e-13
   154    8.522449664910e-04
   155   -1.007900443829e-14
   156   -9.222059954133e-16
   157    4.230751075301e-14
   158    2.324771786593e-14
   159   -2.752510245593e-13
   160    8.296185413216e-13
   161   -5.802907198597e-13
   162   -2.373635279643e-13
   163    2.043035406365e-14
   164   -8.927600686306e-02
   165   -5.754473018331e-14
   166    4.704702706458e-15
   167   -8.191177639216e-03
   168    7.168883321393e-14
   169   -6.021945265381e-15
   170   -2.871985843373e-02
   171    1.687569536747e-12
   172   -1.387585667488e-13
   173    7.835106932039e-01
   174   -1.987466476626e-12
   175    1.474548644210e-13
   176   -1.065536234240e+00
   177    2.492524096822e-14
   178    6.687300316425e-02
   179   -1.843391691053e-12
   180    1.257522513960e-13
   181    5.446901032442e-15
   182    2.422584944947e-13
   183    2.357181094056e-01
   184   -3.188419767583e-12
   185    4.025530180189e-13
   186    2.269555643844e-14
   187   -2.222611837474e-03
   188   -7.659778053174e-15
   189   -3.174755049186e-16
   190    3.430090145362e-03
   191   -9.005628617471e-13
   192    1.364190113899e-14
   193    3.949678009682e-16
Sym=X
Ene= 0.845943
Spin=Alpha
Occup=0
     1   -7.165480360227e-15
     2    1.479009424007e-14
     3   -6.934541089291e-14
     4    1.553914297361e-14
     5   -6.400747707768e-13
     6    1.416172008650e-13
     7    2.718690249635e-15
     8    5.951471628990e-14
     9   -1.292789820205e-12
    10   -7.803361577380e-15
    11   -1.718853296471e-13
    12    3.540038536418e-12
    13   -3.012902156544e-17
    14    6.626802222681e-17
    15    2.402003772283e-12
    16   -3.388624139515e-14
    17   -3.962982077391e-13
    18   -3.409355434711e-11
    19   -4.033431616911e-14
    20    2.525662198032e-14
    21    5.692154792286e-02
    22    3.860515251803e-15
    23   -5.641745933997e-16
    24   -5.729496627227e-14
    25    1.668156393975e-13
    26    6.254928827989e-02
    27   -4.132573716855e-15
    28    1.319243688023e-15
    29    2.557260991245e-13
    30   -8.005229113841e-13
    31   -2.014686331504e-01
    32    3.434882440602e-14
    33   -5.013208479978e-15
    34   -3.491356558278e-13
    35    2.568060693686e-12
    36   -3.367262963472e-01
    37   -8.377429000102e-14
    38   -2.890503678055e-14
    39   -4.123577453360e-14
    40    1.861526028180e-16
    41    3.514350551223e-15
    42   -1.508556735381e-13
    43    1.046850513006e-15
    44   -6.499339486544e-16
    45    9.276941392002e-15
    46   -8.400007361528e-15
    47   -4.349871676145e-15
    48    5.501138606057e-14
    49   -1.732266105084e-13
    50    1.183193507913e-13
    51   -6.345708458204e-14
    52    2.107584521600e-13
    53    1.214667772929e-11
    54   -1.620060908091e-14
    55    5.079843285184e-14
    56    1.347110797409e-12
    57    2.073951684003e-14
    58   -6.723239662591e-14
    59    2.642024103149e-12
    60    4.519545620457e-13
    61   -1.449830036809e-12
    62   -1.008940599307e-10
    63   -5.694116485203e-13
    64    1.502547439936e-12
    65    1.193848034952e-10
    66   -1.433899565155e-14
    67    4.713371351389e-12
    68    4.126283110247e-03
    69   -4.386980887703e-14
    70   -9.439509809852e-14
    71   -9.251898165352e-14
    72    2.128931756879e-11
    73    3.846726029507e-02
    74   -1.054881165528e-13
    75   -4.178785659384e-13
    76    4.298199646925e-13
    77    2.098086572629e-15
    78   -4.831450976389e-15
    79   -5.313750778246e-13
    80   -8.522449664783e-04
    81    1.342808406710e-15
    82    9.863514791089e-15
    83   -4.217753723506e-14
    84   -2.301765951216e-14
    85    2.752264000985e-13
    86   -8.349497952790e-13
    87    5.591972159302e-13
    88    1.292353524048e-14
    89   -2.476517702128e-13
    90    8.927600686045e-02
    91    2.966642845979e-15
    92   -5.956259252977e-14
    93    8.191177638926e-03
    94   -4.550119634657e-15
    95    7.206862309199e-14
    96    2.871985843339e-02
    97   -8.573872420947e-14
    98    1.775365369456e-12
    99   -7.835106931813e-01
   100    9.152119948893e-14
   101   -2.110550184950e-12
   102    1.065536234211e+00
   103   -2.570309415565e-14
   104   -1.467348599002e-12
   105    6.687300316090e-02
   106    1.344051259390e-13
   107   -5.965105469031e-15
   108   -2.527263050681e-13
   109   -2.857260953397e-12
   110    2.357181093900e-01
   111    4.126208648025e-13
   112   -2.905877762054e-14
   113    2.222611837094e-03
   114   -4.158163288851e-16
   115   -4.294329854153e-15
   116    3.430090145350e-03
   117    7.086367451599e-13
   118   -3.780668496143e-16
   119   -1.203134761553e-14
   120    2.762715695177e-14
   121    1.734577832939e-14
   122   -1.793470188023e-13
   123    5.131991749528e-13
   124   -4.249574554389e-13
   125    4.247332837097e-15
   126   -1.271273694887e-13
   127   -8.927600686625e-02
   128    1.314389593993e-15
   129   -3.221563547987e-14
   130   -8.191177639733e-03
   131   -2.433774962766e-15
   132    5.252289863676e-14
   133   -2.871985843356e-02
   134   -2.543734456373e-14
   135    8.255416986946e-13
   136    7.835106932306e-01
   137    1.517882984646e-14
   138   -8.451358050039e-13
   139   -1.065536234275e+00
   140   -8.643756049164e-15
   141   -1.320804108169e-12
   142    6.687300316876e-02
   143   -4.436450829536e-14
   144    4.990782730812e-15
   145    8.755172374805e-14
   146   -2.709880846983e-12
   147    2.357181094269e-01
   148   -2.182544759987e-13
   149    2.448223935263e-14
   150   -2.222611837982e-03
   151    4.289963489270e-16
   152   -2.751897345315e-14
   153   -3.430090145364e-03
   154   -6.336930772274e-13
   155   -5.507853305834e-16
   156   -1.710862398189e-14
   157   -5.641318616419e-15
   158   -2.962533944802e-15
   159    3.678662977128e-14
   160   -1.130814086244e-13
   161    5.978439737894e-14
   162    4.201835717768e-14
   163    1.995029073149e-13
   164    1.223825383373e-11
   165    1.154433902587e-14
   166    4.790194828614e-14
   167    1.327623424824e-12
   168   -1.709694910644e-14
   169   -6.342732209270e-14
   170    2.805700860004e-12
   171   -2.924159552276e-13
   172   -1.369400453447e-12
   173   -1.022117103144e-10
   174    3.713964923979e-13
   175    1.397412151725e-12
   176    1.228835665101e-10
   177   -9.514139232823e-15
   178   -5.084315037719e-12
   179    4.126283110142e-03
   180   -3.336210595935e-14
   181    9.733140800842e-14
   182   -6.662005821415e-14
   183   -2.232815891000e-11
   184    3.846726029468e-02
   185   -7.201018143375e-14
   186    4.232712867480e-13
   187    4.765307725866e-13
   188   -2.530013686166e-15
   189   -4.229194404920e-15
   190   -4.312744252569e-13
   191    8.522449664766e-04
   192    6.445673440695e-16
   193    9.396529623607e-15
Sym=X
Ene= 0.853222
Spin=Alpha
Occup=0
     1   -8.925980836938e-03
     2    1.884155682438e-02
     3   -8.647355977140e-02
     4    1.604895721885e-02
     5   -7.712100643637e-01
     6    2.457643320211e-01
     7   -5.419522399460e-13
     8    1.542728817313e-12
     9   -6.226307421243e-15
    10    1.564963319691e-12
    11   -4.211946343995e-12
    12    1.712094113190e-14
    13   -3.531037954024e-14
    14   -1.667438704144e-12
    15    1.538684538617e-14
    16    5.505867406239e-12
    17   -1.474728778505e-11
    18   -2.259227092288e-13
    19   -4.988936144158e-02
    20    3.748839094058e-14
    21   -4.926019707274e-14
    22    4.183196181619e-12
    23    2.277322864619e-13
    24   -7.042874611890e-02
    25    4.122929000972e-14
    26   -5.365689567986e-14
    27    3.043470252215e-12
    28   -1.726855698276e-12
    29    3.162528094513e-01
    30   -1.376959394005e-13
    31    1.796190087011e-13
    32   -1.987530635288e-11
    33    9.668882732829e-12
    34   -4.614199817369e-01
    35   -2.071099403971e-13
    36    2.779570035956e-13
    37    5.873203402581e-11
    38    5.788869560147e-12
    39   -4.409878193719e-16
    40   -4.498563413809e-14
    41    1.749475073946e-13
    42    9.374201092980e-17
    43    2.588648842443e-16
    44    1.236043198615e-13
    45    3.659242783578e-13
    46   -8.563927224284e-03
    47   -4.460110235468e-03
    48    5.599278852403e-02
    49   -1.728191293325e-01
    50    5.453914687602e-02
    51   -6.866609828010e-02
    52    1.232260255903e-12
    53    9.180864656272e-14
    54   -1.696519724563e-02
    55    1.793540884221e-14
    56    7.030439333971e-15
    57    2.003429085840e-02
    58    4.355931687106e-13
    59    2.899478692946e-14
    60    5.081179232740e-01
    61   -8.658990688717e-12
    62   -7.891516075851e-13
    63   -6.533237494727e-01
    64    5.239924406346e-12
    65    1.017113213418e-12
    66   -1.176467827363e-02
    67    2.093217057231e-14
    68   -4.099460738963e-15
    69   -5.047789110930e-02
    70   -2.809620710542e-12
    71   -9.504250752830e-02
    72    1.400281637815e-13
    73   -3.810116892592e-14
    74   -1.094491854996e-01
    75   -1.427011446682e-11
    76    3.294496419688e-15
    77    4.071365919236e-03
    78   -1.270146225999e-13
    79    7.894487440760e-15
    80    7.613179997346e-16
    81   -1.519949166366e-03
    82    1.216937365572e-13
    83   -8.563927225883e-03
    84   -4.460110236344e-03
    85    5.599278853444e-02
    86   -1.728191293658e-01
    87    5.453914694339e-02
    88   -6.363280320545e-12
    89   -6.866609828413e-02
    90   -3.547712097582e-14
    91   -1.221937787380e-12
    92   -1.696519724541e-02
    93   -2.647240488688e-15
    94    9.803891542434e-13
    95    2.003429085590e-02
    96   -1.738045699999e-14
    97    4.614943963298e-11
    98    5.081179233005e-01
    99    3.415205734092e-13
   100   -4.953350382131e-11
   101   -6.533237494959e-01
   102   -5.271054141539e-13
   103   -1.176467827987e-02
   104    2.724704772663e-15
   105   -6.004910281688e-14
   106    5.047789110714e-02
   107    1.739463678376e-12
   108   -9.504250754420e-02
   109    2.395678983073e-14
   110   -1.852629896050e-13
   111    1.094491855025e-01
   112    3.205524197230e-12
   113   -1.012910457914e-15
   114   -1.420718011504e-13
   115    4.071365918633e-03
   116   -5.776360352873e-15
   117   -7.902841088552e-16
   118    4.953912480816e-13
   119    1.519949165286e-03
   120   -8.563927223983e-03
   121   -4.460110235275e-03
   122    5.599278852210e-02
   123   -1.728191293286e-01
   124    5.453914691427e-02
   125    2.703503271368e-12
   126    6.866609827257e-02
   127    1.129150323697e-13
   128    2.830899240731e-13
   129    1.696519724578e-02
   130    8.104674556149e-15
   131    3.684448956308e-13
   132   -2.003429086380e-02
   133    3.660961833282e-14
   134   -2.131136439166e-11
   135   -5.081179232006e-01
   136   -9.729978283107e-13
   137    2.426486753249e-11
   138    6.533237493859e-01
   139    1.264842169280e-12
   140   -1.176467828022e-02
   141    4.073133487898e-15
   142   -3.405501659560e-14
   143    5.047789110338e-02
   144   -4.954459824135e-13
   145   -9.504250754166e-02
   146    2.400433360912e-14
   147   -1.917499274116e-13
   148    1.094491854905e-01
   149   -6.703561775758e-12
   150    3.097434622400e-15
   151    1.798854711728e-13
   152   -4.071365918724e-03
   153   -8.323697187713e-15
   154    4.463148730770e-16
   155   -2.125519164625e-13
   156   -1.519949166065e-03
   157   -8.563927224951e-03
   158   -4.460110235799e-03
   159    5.599278852839e-02
   160   -1.728191293460e-01
   161    5.453914688756e-02
   162    6.866609828394e-02
   163    1.031673490129e-11
   164   -2.083257835812e-14
   165    1.696519724645e-02
   166    1.519416239692e-12
   167   -1.865445946150e-15
   168   -2.003429085903e-02
   169   -1.462815482322e-13
   170   -1.080400315255e-14
   171   -5.081179233022e-01
   172   -7.633849253759e-11
   173    2.086959152330e-13
   174    6.533237495061e-01
   175    7.934360119932e-11
   176   -3.406127872371e-13
   177   -1.176467827392e-02
   178    5.069040426056e-14
   179   -2.714838335173e-15
   180   -5.047789111090e-02
   181    4.042819983087e-12
   182   -9.504250753087e-02
   183    1.487843231967e-13
   184   -2.951279349904e-14
   185   -1.094491855052e-01
   186    1.072189218380e-11
   187   -6.249294064013e-17
   188   -4.071365919270e-03
   189    1.967074634687e-13
   190    5.925415850458e-15
   191   -6.673291902491e-16
   192    1.519949166088e-03
   193    8.258670938283e-13
[5D7F]

======= END OF MOLDEN-FORMATTED INPUT FILE =======


        *************************************************************
        *                                                           *
        *  Thank you very much for using Q-Chem.  Have a nice day.  *
        *                                                           *
        *************************************************************


