                  Welcome to Q-Chem
     A Quantum Leap Into The Future Of Chemistry


 Q-Chem 6.0 (devel), Q-Chem, Inc., Pleasanton, CA (2022)

 E. Epifanovsky,  A. T. B. Gilbert,  Xintian Feng,  Joonho Lee,  Yuezhi Mao,  
 N. Mardirossian,  P. Pokhilko,  A. White,  M. Wormit,  M. P. Coons,  
 A. L. Dempwolff,  Zhengting Gan,  D. Hait,  P. R. Horn,  L. D. Jacobson,  
 I. Kaliman,  J. Kussmann,  A. W. Lange,  Ka Un Lao,  D. S. Levine,  Jie Liu,  
 S. C. McKenzie,  A. F. Morrison,  K. Nanda,  F. Plasser,  D. R. Rehn,  
 M. L. Vidal,  Zhi-Qiang You,  Ying Zhu,  B. Alam,  B. Albrecht,  
 A. Aldossary,  E. Alguire,  J. H. Andersen,  V. Athavale,  D. Barton,  
 K. Begam,  A. Behn,  N. Bellonzi,  Y. A. Bernard,  E. J. Berquist,  
 H. Burton,  A. Carreras,  K. Carter-Fenk,  Romit Chakraborty,  
 Chandrima Chakravarty,  Junhan Chen,  A. D. Chien,  K. D. Closser,  
 V. Cofer-Shabica,  L. Cunha,  S. Dasgupta,  Jia Deng,  M. de Wergifosse,  
 M. Diedenhofen,  Hainam Do,  S. Ehlert,  Po-Tung Fang,  S. Fatehi,  
 Qingguo Feng,  T. Friedhoff,  B. Ganoe,  J. Gayvert,  Qinghui Ge,  
 G. Gidofalvi,  M. Goldey,  J. Gomes,  C. Gonzalez-Espinoza,  S. Gulania,  
 A. Gunina,  J. A. Gyamfi,  M. W. D. Hanson-Heine,  P. H. P. Harbach,  
 A. W. Hauser,  M. F. Herbst,  M. Hernandez Vera,  M. Hodecker,  
 Z. C. Holden,  S. Houck,  Xunkun Huang,  Kerwin Hui,  B. C. Huynh,  
 K. Ikeda,  M. Ivanov,  Hyunjun Ji,  Zuxin Jin,  Hanjie Jiang,  B. Kaduk,  
 S. Kaehler,  R. Kang,  K. Khistyaev,  Jaehoon Kim,  Yongbin Kim,  
 P. Klunzinger,  Z. Koczor-Benda,  Joong Hoon Koh,  D. Kosenkov,  
 Saikiran Kotaru,  L. Koulias,  T. Kowalczyk,  C. M. Krauter,  K. Kue,  
 A. Kunitsa,  T. Kus,  A. Landau,  K. V. Lawler,  D. Lefrancois,  S. Lehtola,  
 Rain Li,  Shaozhi Li,  Yi-Pei Li,  Jiashu Liang,  M. Liebenthal,  
 Hung-Hsuan Lin,  You-Sheng Lin,  Fenglai Liu,  Kuan-Yu Liu,  
 M. Loipersberger,  A. Luenser,  C. Malbon,  A. Manjanath,  P. Manohar,  
 E. Mansoor,  S. F. Manzer,  Shan-Ping Mao,  A. V. Marenich,  T. Markovich,  
 S. Mason,  F. Matz,  S. A. Maurer,  P. F. McLaughlin,  M. F. S. J. Menger,  
 J.-M. Mewes,  S. A. Mewes,  P. Morgante,  Mohammad Mostafanejad,  
 J. W. Mullinax,  K. J. Oosterbaan,  G. Paran,  V. Parravicini,  
 Alexander C. Paul,  Suranjan K. Paul,  F. Pavosevic,  Zheng Pei,  S. Prager,  
 E. I. Proynov,  E. Ramos,  B. Rana,  A. E. Rask,  A. Rettig,  R. M. Richard,  
 F. Rob,  E. Rossomme,  T. Scheele,  M. Scheurer,  M. Schneider,  
 P. E. Schneider,  N. Sergueev,  S. M. Sharada,  Hengyuan Shen,  
 W. Skomorowski,  D. W. Small,  C. J. Stein,  Yingli Su,  Yu-Chuan Su,  
 E. J. Sundstrom,  Zhen Tao,  J. Thirman,  Hung-Yi Tsai,  T. Tsuchimochi,  
 N. M. Tubman,  C. Utku,  S. P. Veccham,  O. Vydrov,  J. Wenzel,  
 Jonathan Wong,  J. Witte,  A. Yamada,  Chou-Hsun Yang,  Kun Yao,  
 S. Yeganeh,  S. R. Yost,  A. Zech,  F. Zeller,  Igor Ying Zhang,  
 Xing Zhang,  Yu Zhang,  D. Zuev,  A. Aspuru-Guzik,  A. T. Bell,  
 N. A. Besley,  K. B. Bravaya,  B. R. Brooks,  D. Casanova,  Jeng-Da Chai,  
 Hsing-Ta Chen,  S. Coriani,  C. J. Cramer,  A. E. DePrince, III,  
 R. A. DiStasio Jr.,  A. Dreuw,  B. D. Dunietz,  T. R. Furlani,  
 W. A. Goddard III,  S. Grimme,  S. Hammes-Schiffer,  T. Head-Gordon,  
 W. J. Hehre,  Chao-Ping Hsu,  T.-C. Jagau,  Yousung Jung,  A. Klamt,  
 Jing Kong,  D. S. Lambrecht,  Xiangyuan Li,  WanZhen Liang,  N. J. Mayhall,  
 C. W. McCurdy,  J. B. Neaton,  T. Neudecker,  C. Ochsenfeld,  
 J. A. Parkhill,  R. Peverati,  V. A. Rassolov,  Haisheng Ren,  Yihan Shao,  
 L. V. Slipchenko,  R. P. Steele,  J. E. Subotnik,  A. J. W. Thom,  
 A. Tkatchenko,  D. G. Truhlar,  T. Van Voorhis,  Fan Wang,  
 T. A. Wesolowski,  K. B. Whaley,  H. L. Woodcock III,  P. M. Zimmerman,  
 S. Faraji,  P. M. W. Gill,  M. Head-Gordon,  J. M. Herbert,  A. I. Krylov

 Contributors to earlier versions of Q-Chem not listed above: 
 R. D. Adamson,  B. Austin,  R. Baer,  J. Baker,  G. J. O. Beran,  
 K. Brandhorst,  S. T. Brown,  E. F. C. Byrd,  Arup K. Chakraborty,  
 G. K. L. Chan,  Chun-Min Chang,  Yunqing Chen,  C.-L. Cheng,  
 Siu Hung Chien,  D. M. Chipman,  D. L. Crittenden,  H. Dachsel,  
 R. J. Doerksen,  A. D. Dutoi,  R. G. Edgar,  J. Fosso-Tande,  
 L. Fusti-Molnar,  D. Ghosh,  A. Ghysels,  A. Golubeva-Zadorozhnaya,  
 J. Gonthier,  M. S. Gordon,  S. R. Gwaltney,  G. Hawkins,  J. E. Herr,  
 A. Heyden,  S. Hirata,  E. G. Hohenstein,  G. Kedziora,  F. J. Keil,  
 C. Kelley,  Jihan Kim,  R. A. King,  R. Z. Khaliullin,  P. P. Korambath,  
 W. Kurlancheek,  A. Laurent,  A. M. Lee,  M. S. Lee,  S. V. Levchenko,  
 Ching Yeh Lin,  D. Liotard,  E. Livshits,  R. C. Lochan,  I. Lotan,  
 L. A. Martinez-Martinez,  P. E. Maslen,  N. Nair,  D. P. O'Neill,  
 D. Neuhauser,  E. Neuscamman,  C. M. Oana,  R. Olivares-Amaya,  R. Olson,  
 T. M. Perrine,  B. Peters,  P. A. Pieniazek,  A. Prociuk,  Y. M. Rhee,  
 J. Ritchie,  M. A. Rohrdanz,  E. Rosta,  N. J. Russ,  H. F. Schaefer III,  
 M. W. Schmidt,  N. E. Schultz,  S. Sharma,  N. Shenvi,  C. D. Sherrill,  
 A. C. Simmonett,  A. Sodt,  T. Stein,  D. Stuck,  K. S. Thanthiriwatte,  
 V. Vanovschi,  L. Vogt,  Tao Wang,  A. Warshel,  M. A. Watson,  
 C. F. Williams,  Q. Wu,  X. Xu,  Jun Yang,  W. Zhang,  Yan Zhao

   Please cite Q-Chem as follows:
  "Software for the frontiers of quantum chemistry:
   An overview of developments in the Q-Chem 5 package"
   J. Chem. Phys. 155, 084801 (2021)
   https://doi.org/10.1063/5.0055522 (open access)

 Q-Chem 6.0.1 for Intel X86 EM64T Linux

 Parts of Q-Chem use Armadillo 9.900.5 (Nocturnal Misbehaviour).
 http://arma.sourceforge.net/

 Q-Chem begins on Wed Apr  3 19:00:20 2024  

 Host: atlas-282
0

     Scratch files written to ./qchem70305//
 Processing $rem in /scratch/abel/SOFTWARE/qchem/config/preferences:
 Processing $rem in /dipc/acebg/.qchemrc:

 Checking the input file for inconsistencies... 	...done.

--------------------------------------------------------------
User input:
--------------------------------------------------------------
$comment
 RAS-SF CALCULATION
$end

$molecule
READ triplet_3Tm.molecule
$end

$rem
!**CALCULATION TYPE***     
JOBTYPE            sp    
EXCHANGE           HF
CORRELATION        RASCI    !RASCI=Casanova; RASCI2=Zimmerman
BASIS              cc-pVTZ
BASIS2             STO-3G

!***SCF REFERENCE***
!SKIP_SCFMAN        FALSE
UNRESTRICTED       FALSE
!SCF_GUESS          core
!SCF_GUESS_MIX      FALSE
!SCF_GUESS_ALWAYS   FALSE
MAX_SCF_CYCLES      999
!SCF_CONVERGENCE    10
SCF_ALGORITHM       DM !DIIS,DM,DIIS_DM,GDM,DIIS_GDM,GD

!SYMMETRY           TRUE   !use of symmetry for calculating integrals
!SYM_IGNORE         FALSE  !turn off using symmetry
!SYM_TOL            5      !tolerance for determining point group
!USE_ABELIAN_SUBGROUP      !define to use abelian group

!THRESH             14
!SCF_FINAL_PRINT     1 !0,1,2,3

!****RAS-SF****
RAS_ROOTS          20       !number of RAS-CI roots to be computed
SET_ITER           150     !number of iterations in RASCI
RAS_ELEC 8
RAS_ELEC_ALPHA 5
RAS_ELEC_BETA 3

RAS_ACT 8
RAS_ACT_ORB [69, 70, 71, 72, 73, 74, 75, 76]
RAS_OCC 68
!N_FROZEN_CORE      FC     !Number of frozen core orbitals
!N_FROZEN_VIRTUAL   0      !Number of frozen virtual orbitals

!RAS_DO_HOLE        TRUE   !presence of hole excitations in RAS-CI wave function
!RAS_DO_PART        TRUE   !presence of particle excitations
!RAS_AMPL_PRINT     10     !threshold (×10 2 ) for the CI amplitudes

!RAS_GUESS_CS       0      !number of closed shell guess conﬁgurations
!RAS_SPIN_MULT      0      !spin multiplicity. Only for Ms = 0 
!RAS_SRDFT          FALSE  !short-range density functional RAS-CI
!RAS_NFRAG          0     !fragments of excitation analysis in RASCI

RAS_PRINT          2      !level of information
!RAS_NATORB         TRUE   !computation of the natural orbital occupancies
!RAS_NATORB_STATE  0      !Saves NO of i RAS computed state in .fchk ﬁle
!RAS_FOD            TRUE

!****RAS-SOC****
CALC_SOC           TRUE   !calculate SOC for EOM-CC, RAS-CI, ADC, TDDFT/TDA and TDDFT
!RAS_SOC_2E        TRUE   !two-electron mean-ﬁeld contribution, default=true
RAS_SOC_SYM_DENS   TRUE   !averaging of α and β densities

!****MEMORY****
MEM_TOTAL          60000 !Default 2000 MB
MEM_STATIC         20000  !Default 64 MB

!**Molecular Properties and Analysis **                                                                                          
!POP_MULLIKEN       TRUE   !Run Mulliken population analysis
!LOWDIN_POPULATION  TRUE   !Run Löwdin population analysis
!GUI                0       !Checkpoints generation
STATE_ANALYSIS     TRUE

!**Wave function analysis of RAS-CI states: MOLDEN**
!PLOTS = 0     ! Note: This can be omitted, default is 0
!NTO_PAIRS = 2 ! Note: This can be omitted, default is 2
!GUI 0
!MOLDEN_FORMAT      TRUE
!PRINT_ORBITALS     15

!**Wave function analysis of RAS-CI state: CUBE**
!NTO_PAIRS = 2 ! Note: This can be omitted, default is 2
!PLOTS = 1
!GUI 0

!**SR-DFT**
!RAS_SRDFT           TRUE !Perform short-range density functional RAS-CI
!RAS_SRDFT_EXC       0 !EX functional. 0=HF. 
!RAS_SRDFT_ONLY_COR  TRUE !No use of EXC functional
!RAS_SRDFT_COR       srPBE !short-range correlation functional
!ras_srdft_0         TRUE !true: no iteration (one-shot); false: iteration
!RAS_OMEGA           400 !Coulomb range-separation parameter. def=400
!RAS_SRDFT_DAMP     0.5 !dumping factor. def=0.5
$end

!$plots
!   grid_points 100 100 100
!   grid_range  (-10,10) (-10,10) (-10,10)
!$end

--------------------------------------------------------------
 ----------------------------------------------------------------
             Standard Nuclear Orientation (Angstroms)
    I     Atom           X                Y                Z
 ----------------------------------------------------------------
    1      C      -0.0016345247    -4.2245984112    -0.0021647123
    2      C      -1.2056753702    -3.5406899239    -0.0011902204
    3      C      -1.2351552946    -2.1267955361     0.0004497424
    4      C      -0.0005477136    -1.4157229174     0.0002521840
    5      C       1.2335094865    -2.1277502004     0.0005143080
    6      C       1.2029348653    -3.5416217969    -0.0011166219
    7      C      -2.4382013078    -1.4064042224     0.0012836782
    8      C      -2.4592484466    -0.0040765021     0.0014312421
    9      H      -3.3776053888    -1.9473914464     0.0015800112
   10      C      -1.2263265326     0.7085176553     0.0003960502
   11      C      -0.0000000820    -0.0003123471     0.0004007512
   12      C       1.2268743590     0.7075687110     0.0003944687
   13      C       2.4592446361    -0.0059789229     0.0014700218
   14      C       2.4371121585    -1.4082900078     0.0013654230
   15      H       3.3760974711    -1.9500037143     0.0016903942
   16      C      -3.6688493766     0.7291886597     0.0014780287
   17      C      -3.6581374154     2.1135902999     0.0000414487
   18      C      -2.4635546076     2.8143271949    -0.0011040362
   19      C      -1.2245561711     2.1327264619    -0.0008236958
   20      C       0.0010889730     2.8146230973    -0.0014733051
   21      C       1.2262060104     2.1317784942    -0.0008516216
   22      C       2.4657317529     2.8124201907    -0.0011787105
   23      C       3.6597719315     2.1107593236    -0.0000219063
   24      C       3.6694126295     0.7263497739     0.0014782092
   25      H      -2.1436037227    -4.0817792401    -0.0017031750
   26      H       2.1404439769    -4.0834369914    -0.0015692173
   27      H      -0.0020533359    -5.3074451045    -0.0039803341
   28      H      -4.6069650103     0.1884163559     0.0025157460
   29      H      -4.5952802392     2.6552653529    -0.0001632938
   30      H      -2.4637700826     3.8975268173    -0.0021603268
   31      H       0.0015081049     3.8990142362    -0.0023754572
   32      H       4.6071094394     0.1848516853     0.0025297117
   33      H       2.4667848774     3.8956192549    -0.0022727345
   34      H       4.5973341506     2.6517083496    -0.0002756821
 ----------------------------------------------------------------
 Molecular Point Group                 C1    NOp =  1
 Largest Abelian Subgroup              C1    NOp =  1
 Nuclear Repulsion Energy =        1591.97885601 hartrees
 There are       73 alpha and       71 beta electrons
 Requested basis set is cc-pVTZ
 There are 292 shells and 828 basis functions

 Q-Chem warning in module libmdc/get_mega.C, line 167:

 Allowed MEM_STATIC has been capped at MEM_STATIC=8191.
 Reduce the value of MEM_STATIC to silence this warning.


 Total QAlloc Memory Limit  60000 MB
 Mega-Array Size      8007 MB
 MEM_STATIC part      8191 MB

 A cutoff of  1.0D-09 yielded  25921 shell pairs
 There are    196313 function pairs (    254301 Cartesian)
 Smallest overlap matrix eigenvalue = 7.61E-06

 Q-Chem warning in module stvman/mkSTV.C, line 313:

 Overlap eigenvalue is smaller than square root of threshold
 Use THRESH >= 12 to get rid of this warning


 Scale SEOQF with 1.000000e-01/1.000000e-02/1.000000e+00

 Standard Electronic Orientation quadrupole field applied
 Nucleus-field energy     =     0.0000000317 hartrees
 Requested basis set is STO-3G
 There are 56 shells and 122 basis functions
 A cutoff of  1.0D-09 yielded   1002 shell pairs
 There are      5916 function pairs
 Smallest overlap matrix eigenvalue = 1.68E-01
 Constructing guess Fock matrix from core Hamiltonian
 Applying Wolfsberg-Helmholtz approximation
 A restricted Hartree-Fock SCF calculation will be
 performed using direct minimization
 SCF converges when RMS gradient is below 1.0E-04
 ---------------------------------------
  Cycle       Energy        RMS Gradient
 ---------------------------------------
    1    -827.6620504902      1.53E-01
    2    -829.5081686925      5.81E-02
    3    -829.8692392901      6.89E-03
    4    -829.8848077261      3.43E-03
    5    -829.8871473432      9.97E-04
    6    -829.8874516664      1.37E-04
    7    -829.8874636754      7.06E-05 Convergence criterion met
 ---------------------------------------
 SCF time:  CPU 2.69 s  wall 3.03 s
 SCF   energy in the small basis set = -829.88746368
 Total energy in the small basis set = -829.88746368
 ----------------------------------------------------
  Cycle       Energy    
 ----------------------------------------------------
    1    -106.9495275397     -1.07E+02
 A restricted Hartree-Fock SCF calculation will be
 performed using direct minimization
 SCF converges when RMS gradient is below 1.0E-05
 ---------------------------------------
  Cycle       Energy        RMS Gradient
 ---------------------------------------
    1    -840.0840383262      1.68E-02
    2    -840.3056447870      6.61E-03
    3    -840.3054662769      6.62E-03 Try steepest descent ste
    4    -840.3578660041      3.06E-01 BFGS subspace was reset
    5    -839.7488901387      3.53E-02
    6    -840.3642643584      1.77E-03
    7    -840.3661506202      2.42E-04
    8    -840.3663260452      1.82E-04
    9    -840.3663659167      2.60E-05
   10    -840.3663721516      1.75E-05
   11    -840.3663734617      3.70E-06 Convergence criterion met
 ---------------------------------------
 SCF time:  CPU 3261.75 s  wall 3274.42 s
 SCF   energy in the final basis set = -840.36637346
 Total energy in the final basis set = -840.36637346
  
     ##========================================##
     ||                                        ||
     ||              R A S M A N 2             ||
     ||________________________________________||
     ||                                        ||
     ||  Author:                               ||
     ||                                        ||
     ||        David Casanova (2010)           ||
     ||                                        ||
     ##========================================##
  
Setting single-point xc-functionals (if necessary)

  ***************************************************
  *  RAS-CI Dimensions:                             *
  *                                                 *
  *  Active Elec.:   8 ( 5, 3)   Active Orb.:   8   *
  *  Doubly Occ. :  68           Doubly Vir.: 752   *
  *  Frozen Occ. :   0           Frozen Vir.:   0   *
  *                                                 *
  *  Total CI configurations:   4503296             * 
  *    Active configurations:      3136             * 
  *      Hole configurations:    373184             * 
  *  Particle configurations:   4126976             * 
  *                                                 *
  *   Requested states:       20                    *
  *  Spin multiplicity: Any multiplicity            *
  *                                                 *
  ***************************************************
-----------------------------------------
    Memory requirements of RASCI

 Each CI-vector requires     34.36 MiB 
 Max. subspace vectors           3000      

 Reduced Lists                0.00 MiB 
 Excitation Lists             0.00 MiB 
 Excitation Lists Sign        0.00 MiB 
 CI-space (Max)          103828.10 MiB 
 Integrals                  640.68 MiB 
 Memory required (Max)   103828.11 MiB 
 Memory available          7811.55 MiB 

 Q-Chem warning in module rasman2/ras_mem_check.C, line 162:

 Static memory may be insufficient to store the subspace vectors


    Disk requirements of RASCI

 Fock matrix                 10.46 MiB 
 2-electron integrals      1169.94 MiB 
 CI-space                206144.53 MiB 
 Disk required           207324.93 MiB 
-----------------------------------------
  
RAS1 HF-like energy:           -833.5636645310
 Computing integrals
 Computing J and K matrices
 Computing addressing
 Making amplitude guesses
 
Direct CI diagonalization
 ---------------------------------------------------
 Iter    Rts Conv    Rts Left    Ttl Dev     Max Dev
 ---------------------------------------------------
   1         0          20      0.001816    0.000115
   2         0          20      0.001001    0.000059
   3         0          20      0.000881    0.000057
   4         0          20      0.000747    0.000056
   5         0          20      0.000709    0.000057
   6         0          20      0.000990    0.000096
   7         0          20      0.000875    0.000086
   8         0          20      0.000838    0.000085
   9         0          20      0.000749    0.000058
  10         1          19      0.000880    0.000095
  11         1          19      0.000737    0.000069
  12         1          19      0.000522    0.000043
  13         1          19      0.000421    0.000032
  14         1          19      0.000352    0.000030
  15         1          19      0.000269    0.000024
  16         1          19      0.000207    0.000019
  17         1          19      0.000176    0.000017
  18         1          19      0.000141    0.000016
  19         3          17      0.000105    0.000013
  20         3          17      0.000083    0.000011
  21         4          16      0.000067    0.000010
  22         4          16      0.000051    0.000009
  23         8          12      0.000038    0.000007
  24        10          10      0.000031    0.000006
  25        12           8      0.000025    0.000006
  26        15           5      0.000020    0.000005
  27        15           5      0.000017    0.000004
  28        16           4      0.000015    0.000004
  29        18           2      0.000013    0.000004
  30        19           1      0.000012    0.000003
  31        19           1      0.000012    0.000003
  32        19           1      0.000012    0.000002
  33        19           1      0.000011    0.000002
  34        19           1      0.000011    0.000002
  35        19           1      0.000010    0.000001
  36        19           1      0.000010    0.000001
  37        19           1      0.000010    0.000001
  38        20           0      0.000010    0.000001    Roots Converged
 ---------------------------------------------------
   
**************************************************
 RAS-CI total energy for state   1:   -840.443175168591
  Excitation energy (eV) =  0.000000000000
  State symmetry: A1  (C1       )
  <S^2>      :  2.0000
  Dipole Moment:    0.0001 X     0.0322 Y     0.0009 Z
 NATURAL OCCUPATION NUMBERS (higher than 1.0E-05)
            1           2           3           4           5           6
    1   2.0000000   2.0000000   2.0000000   2.0000000   2.0000000   2.0000000
            7           8           9          10          11          12
    1   2.0000000   2.0000000   2.0000000   2.0000000   2.0000000   2.0000000
           13          14          15          16          17          18
    1   2.0000000   2.0000000   2.0000000   2.0000000   2.0000000   2.0000000
           19          20          21          22          23          24
    1   2.0000000   2.0000000   2.0000000   2.0000000   2.0000000   2.0000000
           25          26          27          28          29          30
    1   2.0000000   2.0000000   2.0000000   2.0000000   2.0000000   2.0000000
           31          32          33          34          35          36
    1   2.0000000   2.0000000   2.0000000   2.0000000   2.0000000   2.0000000
           37          38          39          40          41          42
    1   2.0000000   2.0000000   2.0000000   2.0000000   2.0000000   2.0000000
           43          44          45          46          47          48
    1   2.0000000   2.0000000   2.0000000   2.0000000   2.0000000   2.0000000
           49          50          51          52          53          54
    1   2.0000000   2.0000000   2.0000000   2.0000000   2.0000000   2.0000000
           55          56          57          58          59          60
    1   2.0000000   2.0000000   2.0000000   2.0000000   2.0000000   2.0000000
           61          62          63          64          65          66
    1   2.0000000   1.9994684   1.9985880   1.9983625   1.9962517   1.9951828
           67          68          69          70          71          72
    1   1.9951216   1.9886896   1.9579435   1.9535928   1.9354379   1.0024198
           73          74          75          76          77          78
    1   1.0014186   0.0593922   0.0417345   0.0312420   0.0243616   0.0051691
           79          80          81          82          83          84
    1   0.0048336   0.0030826   0.0017653   0.0008866   0.0007635   0.0006252
           85          86          87          88          89          90
    1   0.0004219   0.0004047   0.0003780   0.0002814   0.0002645   0.0002090
           91          92          93          94          95          96
    1   0.0001914   0.0001787   0.0001234   0.0001233   0.0001035   0.0000999
           97          98          99         100         101         102
    1   0.0000891   0.0000784   0.0000727   0.0000639   0.0000619   0.0000574
          103         104         105         106         107         108
    1   0.0000493   0.0000459   0.0000444   0.0000436   0.0000345   0.0000329
          109         110         111         112         113         114
    1   0.0000303   0.0000293   0.0000235   0.0000215   0.0000176   0.0000137
          115
    1   0.0000117

 Head-Gordon Nu:    2.36
 Head-Gordon Nu_nl: 2.06
 Created directory ./qchem70305/plots

  Amplitudes : 
  
 | HOLE  | ALPHA    | BETA     | PART  |    AMPLITUDE 
--------------------------------------------------
 |       | 11111000 | 11100000 |       |     9.3463975298871E-01
--------------------------------------------------
*** Contributions RASCI wfn    Active:  92.28
                                 Hole:   2.88
                                 Part:   4.84

      Mulliken population analysis 
 ---------------------------------------------------
   Atom    Charge (a.u.)   Spin (a.u.)  
 ---------------------------------------------------
   1  C   -0.177686       -0.032119 
   2  C   -0.192598        0.202625 
   3  C    0.137162       -0.019854 
   4  C   -0.053781        0.074114 
   5  C    0.137291       -0.019851 
   6  C   -0.192611        0.202636 
   7  C   -0.213471        0.258201 
   8  C    0.140004       -0.020048 
   9  H    0.132803        0.003733 
  10  C   -0.062256        0.067144 
  11  C   -0.022349       -0.032817 
  12  C   -0.062332        0.067131 
  13  C    0.140001       -0.020046 
  14  C   -0.213485        0.258203 
  15  H    0.132800        0.003733 
  16  C   -0.192219        0.198825 
  17  C   -0.182591       -0.024538 
  18  C   -0.190925        0.207106 
  19  C    0.137462       -0.018771 
  20  C   -0.211438        0.261562 
  21  C    0.137420       -0.018772 
  22  C   -0.190921        0.207104 
  23  C   -0.182605       -0.024525 
  24  C   -0.192262        0.198834 
  25  H    0.142229        0.003037 
  26  H    0.142227        0.003037 
  27  H    0.150897       -0.000641 
  28  H    0.142162        0.003043 
  29  H    0.151049       -0.000557 
  30  H    0.142038        0.003102 
  31  H    0.132732        0.003783 
  32  H    0.142162        0.003043 
  33  H    0.142035        0.003102 
  34  H    0.151054       -0.000557 
 ---------------------------------------------------
   Sum:   -0.000000        2.000000 
 ---------------------------------------------------
 
*** Unpaired Electrons
 Yamaguchi Nd:         2.70
  
**************************************************
 RAS-CI total energy for state   2:   -840.335539691543
  Excitation energy (eV) =  2.928910348765
  State symmetry: A1  (C1       )
  <S^2>      :  2.0000
  Dipole Moment:    0.0002 X     0.1488 Y     0.0009 Z
  Trans. Moment:    0.0770 X    -0.0000 Y     0.0000 Z
  Strength   :  0.000425
  Natural transition orbitals ( 1 -> 2 ):
   e-/hole pair  1 alpha:  ampl =  0.660686 ( 43.7%)   [8 : 9]
   e-/hole pair  2 alpha:  ampl =  0.113825 (  1.3%)   [7 : 10]
   e-/hole pair  1 beta :  ampl =  0.594333 ( 35.3%)   [8 : 9]
   e-/hole pair  2 beta :  ampl =  0.087970 (  0.8%)   [7 : 10]
   Sum of square amplitudes: 0.83

 NATURAL OCCUPATION NUMBERS (higher than 1.0E-05)
            1           2           3           4           5           6
    1   2.0000000   2.0000000   2.0000000   2.0000000   2.0000000   2.0000000
            7           8           9          10          11          12
    1   2.0000000   2.0000000   2.0000000   2.0000000   2.0000000   2.0000000
           13          14          15          16          17          18
    1   2.0000000   2.0000000   2.0000000   2.0000000   2.0000000   2.0000000
           19          20          21          22          23          24
    1   2.0000000   2.0000000   2.0000000   2.0000000   2.0000000   2.0000000
           25          26          27          28          29          30
    1   2.0000000   2.0000000   2.0000000   2.0000000   2.0000000   2.0000000
           31          32          33          34          35          36
    1   2.0000000   2.0000000   2.0000000   2.0000000   2.0000000   2.0000000
           37          38          39          40          41          42
    1   2.0000000   2.0000000   2.0000000   2.0000000   2.0000000   2.0000000
           43          44          45          46          47          48
    1   2.0000000   2.0000000   2.0000000   2.0000000   2.0000000   2.0000000
           49          50          51          52          53          54
    1   2.0000000   2.0000000   2.0000000   2.0000000   2.0000000   2.0000000
           55          56          57          58          59          60
    1   2.0000000   2.0000000   2.0000000   2.0000000   2.0000000   2.0000000
           61          62          63          64          65          66
    1   2.0000000   1.9991863   1.9986865   1.9980929   1.9934222   1.9912360
           67          68          69          70          71          72
    1   1.9909225   1.9829887   1.9519897   1.9506473   1.5313493   0.9951049
           73          74          75          76          77          78
    1   0.9185328   0.5575376   0.0480189   0.0417323   0.0154607   0.0122312
           79          80          81          82          83          84
    1   0.0098301   0.0047874   0.0019616   0.0009925   0.0006160   0.0005828
           85          86          87          88          89          90
    1   0.0005241   0.0004110   0.0003818   0.0003513   0.0002984   0.0002276
           91          92          93          94          95          96
    1   0.0002056   0.0001667   0.0001535   0.0001528   0.0001125   0.0001097
           97          98          99         100         101         102
    1   0.0000922   0.0000878   0.0000731   0.0000729   0.0000632   0.0000628
          103         104         105         106         107         108
    1   0.0000596   0.0000526   0.0000483   0.0000450   0.0000383   0.0000335
          109         110         111         112         113         114
    1   0.0000328   0.0000295   0.0000281   0.0000234   0.0000216   0.0000173
          115         116
    1   0.0000141   0.0000104

 Head-Gordon Nu:    3.22
 Head-Gordon Nu_nl: 3.19

  Amplitudes : 
  
 | HOLE  | ALPHA    | BETA     | PART  |    AMPLITUDE 
--------------------------------------------------
 |       | 11111000 | 11001000 |       |     5.7679220734660E-01
 |       | 11111000 | 01101000 |       |    -1.3897293472411E-01
 |       | 11110100 | 11100000 |       |    -6.4351908017901E-01
 |       | 11110100 | 11010000 |       |    -1.1065044858262E-01
 |       | 11110010 | 11100000 |       |     1.5103790479954E-01
 |       | 11101100 | 11001000 |       |     1.1274958876797E-01
--------------------------------------------------
*** Contributions RASCI wfn    Active:  87.71
                                 Hole:   5.88
                                 Part:   6.41

      Mulliken population analysis 
 ---------------------------------------------------
   Atom    Charge (a.u.)   Spin (a.u.)  
 ---------------------------------------------------
   1  C   -0.185366        0.159255 
   2  C   -0.182506       -0.010491 
   3  C    0.130992        0.057693 
   4  C   -0.053443        0.038110 
   5  C    0.131112        0.057653 
   6  C   -0.182514       -0.010492 
   7  C   -0.203437        0.152320 
   8  C    0.140784        0.018469 
   9  H    0.132457        0.002360 
  10  C   -0.059969        0.047479 
  11  C   -0.038448        0.203250 
  12  C   -0.060045        0.047452 
  13  C    0.140787        0.018453 
  14  C   -0.203455        0.152451 
  15  H    0.132453        0.002361 
  16  C   -0.188598        0.131876 
  17  C   -0.185031        0.021610 
  18  C   -0.188018        0.142568 
  19  C    0.130595        0.015538 
  20  C   -0.214330        0.422731 
  21  C    0.130563        0.015524 
  22  C   -0.188019        0.142644 
  23  C   -0.185040        0.021591 
  24  C   -0.188647        0.131962 
  25  H    0.142422       -0.000277 
  26  H    0.142420       -0.000278 
  27  H    0.149964        0.002929 
  28  H    0.142248        0.002053 
  29  H    0.150697        0.000436 
  30  H    0.142123        0.001989 
  31  H    0.132177        0.006300 
  32  H    0.142248        0.002054 
  33  H    0.142120        0.001991 
  34  H    0.150703        0.000435 
 ---------------------------------------------------
   Sum:   -0.000000        2.000000 
 ---------------------------------------------------
 
*** Unpaired Electrons
 Yamaguchi Nd:         4.07
  
**************************************************
 RAS-CI total energy for state   3:   -840.334682781049
  Excitation energy (eV) =  2.952228069682
  State symmetry: A1  (C1       )
  <S^2>      :  2.0000
  Dipole Moment:    0.0000 X    -0.0841 Y     0.0010 Z
  Trans. Moment:    0.0000 X     0.1337 Y    -0.0002 Z
  Strength   :  0.001293
  Natural transition orbitals ( 1 -> 3 ):
   e-/hole pair  1 alpha:  ampl =  0.674459 ( 45.5%)   [8 : 9]
   e-/hole pair  2 alpha:  ampl =  0.134794 (  1.8%)   [7 : 10]
   e-/hole pair  1 beta :  ampl =  0.573045 ( 32.8%)   [8 : 9]
   e-/hole pair  2 beta :  ampl =  0.090307 (  0.8%)   [7 : 10]
   Sum of square amplitudes: 0.83

 NATURAL OCCUPATION NUMBERS (higher than 1.0E-05)
            1           2           3           4           5           6
    1   2.0000000   2.0000000   2.0000000   2.0000000   2.0000000   2.0000000
            7           8           9          10          11          12
    1   2.0000000   2.0000000   2.0000000   2.0000000   2.0000000   2.0000000
           13          14          15          16          17          18
    1   2.0000000   2.0000000   2.0000000   2.0000000   2.0000000   2.0000000
           19          20          21          22          23          24
    1   2.0000000   2.0000000   2.0000000   2.0000000   2.0000000   2.0000000
           25          26          27          28          29          30
    1   2.0000000   2.0000000   2.0000000   2.0000000   2.0000000   2.0000000
           31          32          33          34          35          36
    1   2.0000000   2.0000000   2.0000000   2.0000000   2.0000000   2.0000000
           37          38          39          40          41          42
    1   2.0000000   2.0000000   2.0000000   2.0000000   2.0000000   2.0000000
           43          44          45          46          47          48
    1   2.0000000   2.0000000   2.0000000   2.0000000   2.0000000   2.0000000
           49          50          51          52          53          54
    1   2.0000000   2.0000000   2.0000000   2.0000000   2.0000000   2.0000000
           55          56          57          58          59          60
    1   2.0000000   2.0000000   2.0000000   2.0000000   2.0000000   2.0000000
           61          62          63          64          65          66
    1   2.0000000   1.9990720   1.9986938   1.9984696   1.9935548   1.9922533
           67          68          69          70          71          72
    1   1.9879807   1.9818649   1.9550555   1.9500668   1.5576081   0.9937480
           73          74          75          76          77          78
    1   0.8810470   0.5673635   0.0511101   0.0438021   0.0123569   0.0119845
           79          80          81          82          83          84
    1   0.0095647   0.0062252   0.0016072   0.0011118   0.0007031   0.0005893
           85          86          87          88          89          90
    1   0.0004548   0.0004098   0.0003991   0.0003620   0.0003082   0.0002299
           91          92          93          94          95          96
    1   0.0002124   0.0001861   0.0001627   0.0001623   0.0001442   0.0001171
           97          98          99         100         101         102
    1   0.0001093   0.0000853   0.0000790   0.0000757   0.0000742   0.0000647
          103         104         105         106         107         108
    1   0.0000512   0.0000495   0.0000484   0.0000460   0.0000414   0.0000397
          109         110         111         112         113         114
    1   0.0000345   0.0000312   0.0000255   0.0000253   0.0000185   0.0000140
          115
    1   0.0000130

 Head-Gordon Nu:    3.17
 Head-Gordon Nu_nl: 3.15

  Amplitudes : 
  
 | HOLE  | ALPHA    | BETA     | PART  |    AMPLITUDE 
--------------------------------------------------
 |       | 11111000 | 11010000 |       |     5.6518051352544E-01
 |       | 11110100 | 11001000 |       |    -1.1168802312008E-01
 |       | 11110001 | 11100000 |       |     1.0611138815833E-01
 |       | 11101100 | 11100000 |       |     6.6267719833956E-01
 |       | 11101100 | 11010000 |       |    -1.1546999444962E-01
 |       | 11101010 | 11100000 |       |     1.2496190915469E-01
--------------------------------------------------
*** Contributions RASCI wfn    Active:  88.00
                                 Hole:   5.78
                                 Part:   6.22

      Mulliken population analysis 
 ---------------------------------------------------
   Atom    Charge (a.u.)   Spin (a.u.)  
 ---------------------------------------------------
   1  C   -0.177536       -0.005994 
   2  C   -0.191008        0.187344 
   3  C    0.134931        0.012303 
   4  C   -0.050233        0.051263 
   5  C    0.135055        0.012334 
   6  C   -0.191025        0.187358 
   7  C   -0.213877        0.333339 
   8  C    0.132604        0.041254 
   9  H    0.132265        0.004998 
  10  C   -0.060853        0.039383 
  11  C   -0.042405        0.222715 
  12  C   -0.060935        0.039390 
  13  C    0.132594        0.041254 
  14  C   -0.213883        0.333214 
  15  H    0.132261        0.004996 
  16  C   -0.181648        0.043001 
  17  C   -0.191833        0.083019 
  18  C   -0.179414        0.037474 
  19  C    0.133516        0.046157 
  20  C   -0.196755        0.063778 
  21  C    0.133478        0.046160 
  22  C   -0.179405        0.037398 
  23  C   -0.191847        0.082981 
  24  C   -0.181683        0.042927 
  25  H    0.142283        0.002742 
  26  H    0.142281        0.002742 
  27  H    0.150660       -0.000081 
  28  H    0.142409        0.000467 
  29  H    0.150309        0.001689 
  30  H    0.142262        0.000562 
  31  H    0.132448        0.001119 
  32  H    0.142409        0.000466 
  33  H    0.142259        0.000561 
  34  H    0.150314        0.001688 
 ---------------------------------------------------
   Sum:   -0.000000        2.000000 
 ---------------------------------------------------
 
*** Unpaired Electrons
 Yamaguchi Nd:         4.05
  
**************************************************
 RAS-CI total energy for state   4:   -840.318052438351
  Excitation energy (eV) =  3.404762718746
  State symmetry: A1  (C1       )
  <S^2>      :  2.0000
  Dipole Moment:    0.0005 X     0.1996 Y     0.0009 Z
  Trans. Moment:    0.1238 X    -0.0011 Y    -0.0000 Z
  Strength   :  0.001278
  Natural transition orbitals ( 1 -> 4 ):
   e-/hole pair  1 alpha:  ampl =  0.682982 ( 46.6%)   [8 : 9]
   e-/hole pair  2 alpha:  ampl =  0.297236 (  8.8%)   [7 : 10]
   e-/hole pair  1 beta :  ampl =  0.431589 ( 18.6%)   [8 : 9]
   e-/hole pair  2 beta :  ampl =  0.310658 (  9.7%)   [7 : 10]
   Sum of square amplitudes: 0.85

 NATURAL OCCUPATION NUMBERS (higher than 1.0E-05)
            1           2           3           4           5           6
    1   2.0000000   2.0000000   2.0000000   2.0000000   2.0000000   2.0000000
            7           8           9          10          11          12
    1   2.0000000   2.0000000   2.0000000   2.0000000   2.0000000   2.0000000
           13          14          15          16          17          18
    1   2.0000000   2.0000000   2.0000000   2.0000000   2.0000000   2.0000000
           19          20          21          22          23          24
    1   2.0000000   2.0000000   2.0000000   2.0000000   2.0000000   2.0000000
           25          26          27          28          29          30
    1   2.0000000   2.0000000   2.0000000   2.0000000   2.0000000   2.0000000
           31          32          33          34          35          36
    1   2.0000000   2.0000000   2.0000000   2.0000000   2.0000000   2.0000000
           37          38          39          40          41          42
    1   2.0000000   2.0000000   2.0000000   2.0000000   2.0000000   2.0000000
           43          44          45          46          47          48
    1   2.0000000   2.0000000   2.0000000   2.0000000   2.0000000   2.0000000
           49          50          51          52          53          54
    1   2.0000000   2.0000000   2.0000000   2.0000000   2.0000000   2.0000000
           55          56          57          58          59          60
    1   2.0000000   2.0000000   2.0000000   2.0000000   2.0000000   2.0000000
           61          62          63          64          65          66
    1   2.0000000   1.9990353   1.9975678   1.9962998   1.9960719   1.9912923
           67          68          69          70          71          72
    1   1.9894315   1.9859811   1.9245515   1.8389496   1.7486367   1.0139350
           73          74          75          76          77          78
    1   0.7104661   0.5638236   0.1217627   0.0629064   0.0195401   0.0148241
           79          80          81          82          83          84
    1   0.0097233   0.0041822   0.0034569   0.0018721   0.0008290   0.0005852
           85          86          87          88          89          90
    1   0.0005244   0.0004286   0.0004179   0.0003113   0.0002983   0.0002757
           91          92          93          94          95          96
    1   0.0001975   0.0001915   0.0001698   0.0001557   0.0001195   0.0001183
           97          98          99         100         101         102
    1   0.0001039   0.0000977   0.0000941   0.0000674   0.0000587   0.0000579
          103         104         105         106         107         108
    1   0.0000570   0.0000556   0.0000523   0.0000473   0.0000469   0.0000399
          109         110         111         112         113         114
    1   0.0000347   0.0000322   0.0000276   0.0000256   0.0000204   0.0000183
          115         116         117
    1   0.0000167   0.0000137   0.0000123

 Head-Gordon Nu:    3.04
 Head-Gordon Nu_nl: 2.87

  Amplitudes : 
  
 | HOLE  | ALPHA    | BETA     | PART  |    AMPLITUDE 
--------------------------------------------------
 |       | 11111000 | 11001000 |       |     1.0263113650988E-01
 |       | 11111000 | 10110000 |       |     2.9611019657649E-01
 |       | 11111000 | 01101000 |       |     4.1363145266645E-01
 |       | 11110100 | 11100000 |       |    -1.0686886279854E-01
 |       | 11110010 | 11100000 |       |    -6.7056827332923E-01
 |       | 11101001 | 11100000 |       |    -2.2232768777480E-01
 |       | 11101000 | 11100000 |  77   |     1.8016855788341E-01
--------------------------------------------------
*** Contributions RASCI wfn    Active:  84.27
                                 Hole:   5.54
                                 Part:  10.19

      Mulliken population analysis 
 ---------------------------------------------------
   Atom    Charge (a.u.)   Spin (a.u.)  
 ---------------------------------------------------
   1  C   -0.222512        0.132116 
   2  C   -0.157346        0.074540 
   3  C    0.127243        0.035191 
   4  C   -0.094826        0.253215 
   5  C    0.127740        0.032729 
   6  C   -0.157604        0.076549 
   7  C   -0.177049        0.069025 
   8  C    0.117727        0.087610 
   9  H    0.133305        0.001068 
  10  C   -0.067625        0.062620 
  11  C   -0.015458       -0.007385 
  12  C   -0.066921        0.060530 
  13  C    0.117964        0.084559 
  14  C   -0.177534        0.073931 
  15  H    0.133290        0.001142 
  16  C   -0.176634        0.123226 
  17  C   -0.203165        0.047139 
  18  C   -0.187508        0.188876 
  19  C    0.146953        0.001718 
  20  C   -0.215914        0.219801 
  21  C    0.146744        0.001472 
  22  C   -0.187806        0.189716 
  23  C   -0.202527        0.045471 
  24  C   -0.177263        0.125843 
  25  H    0.142584        0.001311 
  26  H    0.142569        0.001345 
  27  H    0.149732        0.002182 
  28  H    0.142383        0.001870 
  29  H    0.150421        0.000823 
  30  H    0.141815        0.002932 
  31  H    0.132588        0.003196 
  32  H    0.142373        0.001910 
  33  H    0.141815        0.002941 
  34  H    0.150443        0.000791 
 ---------------------------------------------------
   Sum:   -0.000000        2.000000 
 ---------------------------------------------------
 
*** Unpaired Electrons
 Yamaguchi Nd:         4.16
  
**************************************************
 RAS-CI total energy for state   5:   -840.317596628396
  Excitation energy (eV) =  3.417165938678
  State symmetry: A1  (C1       )
  <S^2>      :  2.0000
  Dipole Moment:   -0.0003 X    -0.2520 Y     0.0009 Z
  Trans. Moment:   -0.0010 X    -0.0925 Y    -0.0001 Z
  Strength   :  0.000716
  Natural transition orbitals ( 1 -> 5 ):
   e-/hole pair  1 alpha:  ampl =  0.476018 ( 22.7%)   [8 : 9]
   e-/hole pair  2 alpha:  ampl =  0.458137 ( 21.0%)   [7 : 10]
   e-/hole pair  1 beta :  ampl =  0.537521 ( 28.9%)   [8 : 9]
   e-/hole pair  2 beta :  ampl =  0.325984 ( 10.6%)   [7 : 10]
   Sum of square amplitudes: 0.85

 NATURAL OCCUPATION NUMBERS (higher than 1.0E-05)
            1           2           3           4           5           6
    1   2.0000000   2.0000000   2.0000000   2.0000000   2.0000000   2.0000000
            7           8           9          10          11          12
    1   2.0000000   2.0000000   2.0000000   2.0000000   2.0000000   2.0000000
           13          14          15          16          17          18
    1   2.0000000   2.0000000   2.0000000   2.0000000   2.0000000   2.0000000
           19          20          21          22          23          24
    1   2.0000000   2.0000000   2.0000000   2.0000000   2.0000000   2.0000000
           25          26          27          28          29          30
    1   2.0000000   2.0000000   2.0000000   2.0000000   2.0000000   2.0000000
           31          32          33          34          35          36
    1   2.0000000   2.0000000   2.0000000   2.0000000   2.0000000   2.0000000
           37          38          39          40          41          42
    1   2.0000000   2.0000000   2.0000000   2.0000000   2.0000000   2.0000000
           43          44          45          46          47          48
    1   2.0000000   2.0000000   2.0000000   2.0000000   2.0000000   2.0000000
           49          50          51          52          53          54
    1   2.0000000   2.0000000   2.0000000   2.0000000   2.0000000   2.0000000
           55          56          57          58          59          60
    1   2.0000000   2.0000000   2.0000000   2.0000000   2.0000000   2.0000000
           61          62          63          64          65          66
    1   2.0000000   1.9990246   1.9982147   1.9964640   1.9960210   1.9891952
           67          68          69          70          71          72
    1   1.9877079   1.9874714   1.9342819   1.8334889   1.6319519   1.0847524
           73          74          75          76          77          78
    1   0.8795210   0.3049583   0.2569833   0.0599532   0.0213217   0.0130536
           79          80          81          82          83          84
    1   0.0116339   0.0042332   0.0029893   0.0012532   0.0007394   0.0005554
           85          86          87          88          89          90
    1   0.0004642   0.0004150   0.0003802   0.0003460   0.0002697   0.0002388
           91          92          93          94          95          96
    1   0.0002006   0.0001941   0.0001643   0.0001621   0.0001500   0.0001373
           97          98          99         100         101         102
    1   0.0001246   0.0001124   0.0000766   0.0000732   0.0000653   0.0000646
          103         104         105         106         107         108
    1   0.0000565   0.0000540   0.0000495   0.0000481   0.0000448   0.0000405
          109         110         111         112         113         114
    1   0.0000360   0.0000348   0.0000283   0.0000250   0.0000241   0.0000219
          115         116         117         118
    1   0.0000192   0.0000135   0.0000126   0.0000101

 Head-Gordon Nu:    3.12
 Head-Gordon Nu_nl: 2.91

  Amplitudes : 
  
 | HOLE  | ALPHA    | BETA     | PART  |    AMPLITUDE 
--------------------------------------------------
 |       | 11111000 | 11010000 |       |    -1.2047844167906E-01
 |       | 11111000 | 10101000 |       |     5.1901885339589E-01
 |       | 11111000 | 01110000 |       |     2.8702885903596E-01
 |       | 11110001 | 11100000 |       |     3.5191113330694E-01
 |       | 11101010 | 11100000 |       |     4.5554202542103E-01
 |  68   | 11111000 | 11101000 |       |    -1.2694402692698E-01
 |       | 11110000 | 11100000 |  77   |    -2.9720244047889E-01
--------------------------------------------------
*** Contributions RASCI wfn    Active:  77.57
                                 Hole:   6.80
                                 Part:  15.64

      Mulliken population analysis 
 ---------------------------------------------------
   Atom    Charge (a.u.)   Spin (a.u.)  
 ---------------------------------------------------
   1  C   -0.197438        0.074328 
   2  C   -0.192199        0.140402 
   3  C    0.138979        0.107304 
   4  C   -0.061636        0.097304 
   5  C    0.138660        0.109720 
   6  C   -0.191935        0.138430 
   7  C   -0.216228        0.094629 
   8  C    0.139518        0.068959 
   9  H    0.132641        0.001334 
  10  C   -0.083164        0.073664 
  11  C   -0.016287       -0.005225 
  12  C   -0.084093        0.075678 
  13  C    0.139211        0.072001 
  14  C   -0.215700        0.089718 
  15  H    0.132650        0.001260 
  16  C   -0.164081        0.123100 
  17  C   -0.204293        0.016830 
  18  C   -0.180149        0.173714 
  19  C    0.149300        0.019271 
  20  C   -0.202037        0.178475 
  21  C    0.149451        0.019534 
  22  C   -0.179819        0.172810 
  23  C   -0.205020        0.018429 
  24  C   -0.163470        0.120474 
  25  H    0.141935        0.002157 
  26  H    0.141946        0.002123 
  27  H    0.150217        0.001266 
  28  H    0.142640        0.001837 
  29  H    0.150602        0.000222 
  30  H    0.141932        0.002739 
  31  H    0.132700        0.002729 
  32  H    0.142651        0.001796 
  33  H    0.141925        0.002730 
  34  H    0.150589        0.000254 
 ---------------------------------------------------
   Sum:   -0.000000        2.000000 
 ---------------------------------------------------
 
*** Unpaired Electrons
 Yamaguchi Nd:         4.30
  
**************************************************
 RAS-CI total energy for state   6:   -840.314041163354
  Excitation energy (eV) =  3.513915064906
  State symmetry: A1  (C1       )
  <S^2>      :  2.0000
  Dipole Moment:   -0.0003 X     0.0523 Y     0.0010 Z
  Trans. Moment:   -0.0341 X     0.0000 Y    -0.0000 Z
  Strength   :  0.000100
  Natural transition orbitals ( 1 -> 6 ):
   e-/hole pair  1 alpha:  ampl =  0.789827 ( 62.4%)   [8 : 9]
   e-/hole pair  2 alpha:  ampl =  0.107685 (  1.2%)   [7 : 10]
   e-/hole pair  1 beta :  ampl =  0.448976 ( 20.2%)   [8 : 9]
   e-/hole pair  2 beta :  ampl =  0.128533 (  1.7%)   [7 : 10]
   Sum of square amplitudes: 0.87

 NATURAL OCCUPATION NUMBERS (higher than 1.0E-05)
            1           2           3           4           5           6
    1   2.0000000   2.0000000   2.0000000   2.0000000   2.0000000   2.0000000
            7           8           9          10          11          12
    1   2.0000000   2.0000000   2.0000000   2.0000000   2.0000000   2.0000000
           13          14          15          16          17          18
    1   2.0000000   2.0000000   2.0000000   2.0000000   2.0000000   2.0000000
           19          20          21          22          23          24
    1   2.0000000   2.0000000   2.0000000   2.0000000   2.0000000   2.0000000
           25          26          27          28          29          30
    1   2.0000000   2.0000000   2.0000000   2.0000000   2.0000000   2.0000000
           31          32          33          34          35          36
    1   2.0000000   2.0000000   2.0000000   2.0000000   2.0000000   2.0000000
           37          38          39          40          41          42
    1   2.0000000   2.0000000   2.0000000   2.0000000   2.0000000   2.0000000
           43          44          45          46          47          48
    1   2.0000000   2.0000000   2.0000000   2.0000000   2.0000000   2.0000000
           49          50          51          52          53          54
    1   2.0000000   2.0000000   2.0000000   2.0000000   2.0000000   2.0000000
           55          56          57          58          59          60
    1   2.0000000   2.0000000   2.0000000   2.0000000   2.0000000   2.0000000
           61          62          63          64          65          66
    1   2.0000000   1.9988113   1.9974385   1.9969993   1.9963269   1.9950164
           67          68          69          70          71          72
    1   1.9840941   1.9833294   1.9510804   1.9248813   1.7245066   1.0067352
           73          74          75          76          77          78
    1   0.7202866   0.5735247   0.0532803   0.0395738   0.0196933   0.0161519
           79          80          81          82          83          84
    1   0.0043769   0.0039223   0.0024537   0.0018138   0.0009449   0.0005476
           85          86          87          88          89          90
    1   0.0005173   0.0003911   0.0003527   0.0003152   0.0002744   0.0002535
           91          92          93          94          95          96
    1   0.0002170   0.0001993   0.0001816   0.0001640   0.0001527   0.0001243
           97          98          99         100         101         102
    1   0.0001100   0.0001033   0.0000928   0.0000796   0.0000670   0.0000613
          103         104         105         106         107         108
    1   0.0000598   0.0000545   0.0000530   0.0000448   0.0000418   0.0000379
          109         110         111         112         113         114
    1   0.0000315   0.0000298   0.0000273   0.0000225   0.0000209   0.0000161
          115         116         117         118
    1   0.0000144   0.0000125   0.0000118   0.0000101

 Head-Gordon Nu:    2.88
 Head-Gordon Nu_nl: 2.80

  Amplitudes : 
  
 | HOLE  | ALPHA    | BETA     | PART  |    AMPLITUDE 
--------------------------------------------------
 |       | 11111000 | 10110000 |       |     4.2027641951472E-01
 |       | 11101001 | 11100000 |       |     7.4802993672378E-01
 |  68   | 11111000 | 11110000 |       |     1.5211481400753E-01
 |       | 11101000 | 11100000 |  77   |     2.3244814295635E-01
--------------------------------------------------
*** Contributions RASCI wfn    Active:  80.78
                                 Hole:   7.54
                                 Part:  11.68

      Mulliken population analysis 
 ---------------------------------------------------
   Atom    Charge (a.u.)   Spin (a.u.)  
 ---------------------------------------------------
   1  C   -0.177724       -0.030296 
   2  C   -0.190851        0.221756 
   3  C    0.135712        0.009871 
   4  C   -0.031549        0.002802 
   5  C    0.135855        0.009904 
   6  C   -0.190887        0.221763 
   7  C   -0.207142        0.202382 
   8  C    0.162252        0.019406 
   9  H    0.132769        0.003024 
  10  C   -0.117105        0.149731 
  11  C   -0.009464       -0.005426 
  12  C   -0.117215        0.149688 
  13  C    0.162265        0.019440 
  14  C   -0.207133        0.202319 
  15  H    0.132765        0.003023 
  16  C   -0.168408        0.152998 
  17  C   -0.251252        0.080220 
  18  C   -0.123153        0.059758 
  19  C    0.082906        0.134714 
  20  C   -0.131362       -0.050036 
  21  C    0.082855        0.134742 
  22  C   -0.123096        0.059735 
  23  C   -0.251273        0.080190 
  24  C   -0.168430        0.152968 
  25  H    0.142199        0.003327 
  26  H    0.142197        0.003327 
  27  H    0.150874       -0.000605 
  28  H    0.142061        0.002638 
  29  H    0.149487        0.001541 
  30  H    0.143117        0.000862 
  31  H    0.134063       -0.000809 
  32  H    0.142062        0.002638 
  33  H    0.143114        0.000862 
  34  H    0.149492        0.001541 
 ---------------------------------------------------
   Sum:   -0.000000        2.000000 
 ---------------------------------------------------
 
*** Unpaired Electrons
 Yamaguchi Nd:         3.84
  
**************************************************
 RAS-CI total energy for state   7:   -840.301305260650
  Excitation energy (eV) =  3.860476609978
  State symmetry: A1  (C1       )
  <S^2>      :  2.0000
  Dipole Moment:    0.0013 X     0.1423 Y     0.0009 Z
  Trans. Moment:    0.0001 X     0.0533 Y     0.0001 Z
  Strength   :  0.000269
  Natural transition orbitals ( 1 -> 7 ):
   e-/hole pair  1 alpha:  ampl =  0.507223 ( 25.7%)   [8 : 9]
   e-/hole pair  2 alpha:  ampl =  0.506762 ( 25.7%)   [7 : 10]
   e-/hole pair  1 beta :  ampl =  0.378563 ( 14.3%)   [8 : 9]
   e-/hole pair  2 beta :  ampl =  0.319400 ( 10.2%)   [7 : 10]
   Sum of square amplitudes: 0.77

 NATURAL OCCUPATION NUMBERS (higher than 1.0E-05)
            1           2           3           4           5           6
    1   2.0000000   2.0000000   2.0000000   2.0000000   2.0000000   2.0000000
            7           8           9          10          11          12
    1   2.0000000   2.0000000   2.0000000   2.0000000   2.0000000   2.0000000
           13          14          15          16          17          18
    1   2.0000000   2.0000000   2.0000000   2.0000000   2.0000000   2.0000000
           19          20          21          22          23          24
    1   2.0000000   2.0000000   2.0000000   2.0000000   2.0000000   2.0000000
           25          26          27          28          29          30
    1   2.0000000   2.0000000   2.0000000   2.0000000   2.0000000   2.0000000
           31          32          33          34          35          36
    1   2.0000000   2.0000000   2.0000000   2.0000000   2.0000000   2.0000000
           37          38          39          40          41          42
    1   2.0000000   2.0000000   2.0000000   2.0000000   2.0000000   2.0000000
           43          44          45          46          47          48
    1   2.0000000   2.0000000   2.0000000   2.0000000   2.0000000   2.0000000
           49          50          51          52          53          54
    1   2.0000000   2.0000000   2.0000000   2.0000000   2.0000000   2.0000000
           55          56          57          58          59          60
    1   2.0000000   2.0000000   2.0000000   2.0000000   2.0000000   2.0000000
           61          62          63          64          65          66
    1   2.0000000   1.9990639   1.9986062   1.9962551   1.9946795   1.9899424
           67          68          69          70          71          72
    1   1.9882324   1.9716520   1.9120153   1.8239824   1.7695268   0.8745694
           73          74          75          76          77          78
    1   0.8385641   0.3707353   0.3401218   0.0668260   0.0298032   0.0098210
           79          80          81          82          83          84
    1   0.0080120   0.0064099   0.0034307   0.0014262   0.0006225   0.0005844
           85          86          87          88          89          90
    1   0.0005334   0.0005259   0.0004936   0.0003998   0.0003537   0.0003029
           91          92          93          94          95          96
    1   0.0002756   0.0002294   0.0001987   0.0001969   0.0001628   0.0001606
           97          98          99         100         101         102
    1   0.0001454   0.0001209   0.0000929   0.0000790   0.0000774   0.0000739
          103         104         105         106         107         108
    1   0.0000681   0.0000608   0.0000586   0.0000532   0.0000531   0.0000457
          109         110         111         112         113         114
    1   0.0000412   0.0000365   0.0000326   0.0000313   0.0000311   0.0000245
          115         116         117         118         119         120
    1   0.0000240   0.0000160   0.0000149   0.0000137   0.0000110   0.0000104

 Head-Gordon Nu:    3.11
 Head-Gordon Nu_nl: 2.92

  Amplitudes : 
  
 | HOLE  | ALPHA    | BETA     | PART  |    AMPLITUDE 
--------------------------------------------------
 |       | 11111000 | 10101000 |       |    -2.6294963292046E-01
 |       | 11111000 | 01110000 |       |     3.6122632363646E-01
 |       | 11110001 | 11100000 |       |    -4.8600154025872E-01
 |       | 11101010 | 11100000 |       |     4.9161282165801E-01
 |       | 11101010 | 01110000 |       |    -1.1142796713611E-01
 |  68   | 11111000 | 11101000 |       |     1.4770352163144E-01
 |       | 11110000 | 11100000 |  77   |     1.0520734255330E-01
--------------------------------------------------
*** Contributions RASCI wfn    Active:  81.80
                                 Hole:   9.30
                                 Part:   8.90

      Mulliken population analysis 
 ---------------------------------------------------
   Atom    Charge (a.u.)   Spin (a.u.)  
 ---------------------------------------------------
   1  C   -0.207959        0.092864 
   2  C   -0.169909        0.137140 
   3  C    0.124585        0.090930 
   4  C   -0.052860        0.113697 
   5  C    0.124590        0.090786 
   6  C   -0.169833        0.137267 
   7  C   -0.195179        0.119070 
   8  C    0.141277        0.068149 
   9  H    0.132972        0.001818 
  10  C   -0.077724        0.097711 
  11  C   -0.016686        0.010748 
  12  C   -0.077796        0.097744 
  13  C    0.141221        0.067943 
  14  C   -0.195216        0.119009 
  15  H    0.132967        0.001818 
  16  C   -0.177188        0.102467 
  17  C   -0.213425        0.046872 
  18  C   -0.170375        0.133555 
  19  C    0.120193        0.026448 
  20  C   -0.190114        0.118188 
  21  C    0.120219        0.026399 
  22  C   -0.170499        0.133326 
  23  C   -0.213436        0.046804 
  24  C   -0.177277        0.102361 
  25  H    0.142417        0.002156 
  26  H    0.142416        0.002158 
  27  H    0.150056        0.001589 
  28  H    0.142339        0.001596 
  29  H    0.150341        0.000811 
  30  H    0.142183        0.002135 
  31  H    0.132839        0.001907 
  32  H    0.142339        0.001595 
  33  H    0.142178        0.002131 
  34  H    0.150346        0.000810 
 ---------------------------------------------------
   Sum:   -0.000000        2.000000 
 ---------------------------------------------------
 
*** Unpaired Electrons
 Yamaguchi Nd:         4.40
  
**************************************************
 RAS-CI total energy for state   8:   -840.295821809344
  Excitation energy (eV) =  4.009688911701
  State symmetry: A1  (C1       )
  <S^2>      :  2.0000
  Dipole Moment:   -0.0023 X     0.5720 Y     0.0011 Z
  Trans. Moment:    0.2136 X    -0.0005 Y    -0.0000 Z
  Strength   :  0.004481
  Natural transition orbitals ( 1 -> 8 ):
   e-/hole pair  1 alpha:  ampl =  0.422348 ( 17.8%)   [8 : 9]
   e-/hole pair  2 alpha:  ampl =  0.382978 ( 14.7%)   [7 : 10]
   e-/hole pair  1 beta :  ampl =  0.581875 ( 33.9%)   [8 : 9]
   e-/hole pair  2 beta :  ampl =  0.374109 ( 14.0%)   [7 : 10]
   Sum of square amplitudes: 0.82

 NATURAL OCCUPATION NUMBERS (higher than 1.0E-05)
            1           2           3           4           5           6
    1   2.0000000   2.0000000   2.0000000   2.0000000   2.0000000   2.0000000
            7           8           9          10          11          12
    1   2.0000000   2.0000000   2.0000000   2.0000000   2.0000000   2.0000000
           13          14          15          16          17          18
    1   2.0000000   2.0000000   2.0000000   2.0000000   2.0000000   2.0000000
           19          20          21          22          23          24
    1   2.0000000   2.0000000   2.0000000   2.0000000   2.0000000   2.0000000
           25          26          27          28          29          30
    1   2.0000000   2.0000000   2.0000000   2.0000000   2.0000000   2.0000000
           31          32          33          34          35          36
    1   2.0000000   2.0000000   2.0000000   2.0000000   2.0000000   2.0000000
           37          38          39          40          41          42
    1   2.0000000   2.0000000   2.0000000   2.0000000   2.0000000   2.0000000
           43          44          45          46          47          48
    1   2.0000000   2.0000000   2.0000000   2.0000000   2.0000000   2.0000000
           49          50          51          52          53          54
    1   2.0000000   2.0000000   2.0000000   2.0000000   2.0000000   2.0000000
           55          56          57          58          59          60
    1   2.0000000   2.0000000   2.0000000   2.0000000   2.0000000   2.0000000
           61          62          63          64          65          66
    1   2.0000000   1.9981904   1.9978393   1.9962600   1.9960542   1.9924578
           67          68          69          70          71          72
    1   1.9894442   1.9799310   1.9350452   1.7913063   1.5624795   1.1727223
           73          74          75          76          77          78
    1   0.9935777   0.2434374   0.2277995   0.0591518   0.0292352   0.0098805
           79          80          81          82          83          84
    1   0.0084685   0.0051362   0.0033852   0.0015707   0.0008491   0.0007093
           85          86          87          88          89          90
    1   0.0006155   0.0005721   0.0004295   0.0003758   0.0003726   0.0002772
           91          92          93          94          95          96
    1   0.0002377   0.0002220   0.0002017   0.0001851   0.0001572   0.0001417
           97          98          99         100         101         102
    1   0.0001290   0.0001176   0.0001038   0.0000962   0.0000750   0.0000718
          103         104         105         106         107         108
    1   0.0000663   0.0000655   0.0000585   0.0000566   0.0000463   0.0000442
          109         110         111         112         113         114
    1   0.0000412   0.0000383   0.0000377   0.0000302   0.0000274   0.0000245
          115         116         117         118         119
    1   0.0000214   0.0000179   0.0000158   0.0000113   0.0000100

 Head-Gordon Nu:    3.18
 Head-Gordon Nu_nl: 2.93

  Amplitudes : 
  
 | HOLE  | ALPHA    | BETA     | PART  |    AMPLITUDE 
--------------------------------------------------
 |       | 11111000 | 11001000 |       |     1.6384906811708E-01
 |       | 11111000 | 10110000 |       |     5.8162408346060E-01
 |       | 11111000 | 01101000 |       |    -3.2511655671981E-01
 |       | 11110100 | 11100000 |       |     3.2675453929120E-01
 |       | 11110010 | 11100000 |       |     1.8026400881603E-01
 |       | 11101001 | 11100000 |       |    -3.6028145654177E-01
 |       | 11101000 | 11100000 |  77   |     2.2368533421107E-01
--------------------------------------------------
*** Contributions RASCI wfn    Active:  81.61
                                 Hole:   5.62
                                 Part:  12.77

      Mulliken population analysis 
 ---------------------------------------------------
   Atom    Charge (a.u.)   Spin (a.u.)  
 ---------------------------------------------------
   1  C   -0.150420        0.035991 
   2  C   -0.178807        0.200473 
   3  C    0.150897        0.069381 
   4  C   -0.067399        0.044280 
   5  C    0.151002        0.069638 
   6  C   -0.178867        0.200260 
   7  C   -0.232103        0.146711 
   8  C    0.149040        0.069453 
   9  H    0.132371        0.002107 
  10  C   -0.069254        0.053379 
  11  C   -0.040811        0.034246 
  12  C   -0.069601        0.053435 
  13  C    0.149053        0.069683 
  14  C   -0.231957        0.146902 
  15  H    0.132370        0.002110 
  16  C   -0.183939        0.117539 
  17  C   -0.208998        0.025181 
  18  C   -0.181879        0.151056 
  19  C    0.163257        0.045058 
  20  C   -0.259427        0.107179 
  21  C    0.163248        0.044970 
  22  C   -0.181650        0.151464 
  23  C   -0.209006        0.025104 
  24  C   -0.183779        0.117728 
  25  H    0.142234        0.003013 
  26  H    0.142231        0.003009 
  27  H    0.151376        0.000284 
  28  H    0.142185        0.001613 
  29  H    0.150315        0.000602 
  30  H    0.142021        0.002203 
  31  H    0.131766        0.001523 
  32  H    0.142188        0.001615 
  33  H    0.142021        0.002210 
  34  H    0.150322        0.000599 
 ---------------------------------------------------
   Sum:   -0.000000        2.000000 
 ---------------------------------------------------
 
*** Unpaired Electrons
 Yamaguchi Nd:         4.33
  
**************************************************
 RAS-CI total energy for state   9:   -840.294558838903
  Excitation energy (eV) =  4.044056085951
  State symmetry: A1  (C1       )
  <S^2>      :  2.0000
  Dipole Moment:    0.0028 X     0.0550 Y     0.0010 Z
  Trans. Moment:   -0.0006 X    -0.3103 Y    -0.0004 Z
  Strength   :  0.009539
  Natural transition orbitals ( 1 -> 9 ):
   e-/hole pair  1 alpha:  ampl =  0.568703 ( 32.3%)   [8 : 9]
   e-/hole pair  2 alpha:  ampl =  0.409016 ( 16.7%)   [7 : 10]
   e-/hole pair  1 beta :  ampl =  0.496832 ( 24.7%)   [8 : 9]
   e-/hole pair  2 beta :  ampl =  0.261269 (  6.8%)   [7 : 10]
   Sum of square amplitudes: 0.81

 NATURAL OCCUPATION NUMBERS (higher than 1.0E-05)
            1           2           3           4           5           6
    1   2.0000000   2.0000000   2.0000000   2.0000000   2.0000000   2.0000000
            7           8           9          10          11          12
    1   2.0000000   2.0000000   2.0000000   2.0000000   2.0000000   2.0000000
           13          14          15          16          17          18
    1   2.0000000   2.0000000   2.0000000   2.0000000   2.0000000   2.0000000
           19          20          21          22          23          24
    1   2.0000000   2.0000000   2.0000000   2.0000000   2.0000000   2.0000000
           25          26          27          28          29          30
    1   2.0000000   2.0000000   2.0000000   2.0000000   2.0000000   2.0000000
           31          32          33          34          35          36
    1   2.0000000   2.0000000   2.0000000   2.0000000   2.0000000   2.0000000
           37          38          39          40          41          42
    1   2.0000000   2.0000000   2.0000000   2.0000000   2.0000000   2.0000000
           43          44          45          46          47          48
    1   2.0000000   2.0000000   2.0000000   2.0000000   2.0000000   2.0000000
           49          50          51          52          53          54
    1   2.0000000   2.0000000   2.0000000   2.0000000   2.0000000   2.0000000
           55          56          57          58          59          60
    1   2.0000000   2.0000000   2.0000000   2.0000000   2.0000000   2.0000000
           61          62          63          64          65          66
    1   2.0000000   1.9979310   1.9971513   1.9970843   1.9952714   1.9928291
           67          68          69          70          71          72
    1   1.9895071   1.9824879   1.9429071   1.8545602   1.6690646   0.9122067
           73          74          75          76          77          78
    1   0.8909893   0.4328047   0.2449540   0.0474376   0.0203905   0.0094411
           79          80          81          82          83          84
    1   0.0060311   0.0057747   0.0021788   0.0019795   0.0009725   0.0006583
           85          86          87          88          89          90
    1   0.0006536   0.0005526   0.0004672   0.0004382   0.0003815   0.0002908
           91          92          93          94          95          96
    1   0.0002463   0.0002434   0.0002241   0.0001854   0.0001639   0.0001583
           97          98          99         100         101         102
    1   0.0001531   0.0001178   0.0001176   0.0000978   0.0000877   0.0000822
          103         104         105         106         107         108
    1   0.0000760   0.0000686   0.0000638   0.0000567   0.0000557   0.0000493
          109         110         111         112         113         114
    1   0.0000446   0.0000415   0.0000337   0.0000315   0.0000254   0.0000236
          115         116         117         118         119         120
    1   0.0000195   0.0000170   0.0000150   0.0000124   0.0000115   0.0000105

 Head-Gordon Nu:    3.16
 Head-Gordon Nu_nl: 3.01

  Amplitudes : 
  
 | HOLE  | ALPHA    | BETA     | PART  |    AMPLITUDE 
--------------------------------------------------
 |       | 11111000 | 11010000 |       |    -2.4650228430516E-01
 |       | 11111000 | 10101000 |       |     4.9277032433190E-01
 |       | 11110001 | 11100000 |       |    -5.2900471539383E-01
 |       | 11101100 | 11100000 |       |     3.2904935718768E-01
 |       | 11101010 | 11100000 |       |    -2.1599381208205E-01
 |       | 11110000 | 11100000 |  77   |    -1.9492203870876E-01
--------------------------------------------------
*** Contributions RASCI wfn    Active:  83.18
                                 Hole:   5.78
                                 Part:  11.05

      Mulliken population analysis 
 ---------------------------------------------------
   Atom    Charge (a.u.)   Spin (a.u.)  
 ---------------------------------------------------
   1  C   -0.200488        0.026778 
   2  C   -0.176100        0.086898 
   3  C    0.139042        0.032726 
   4  C   -0.042544        0.026039 
   5  C    0.139260        0.032619 
   6  C   -0.176097        0.086983 
   7  C   -0.219354        0.120650 
   8  C    0.165644        0.027388 
   9  H    0.132534        0.001810 
  10  C   -0.093946        0.075923 
  11  C   -0.027723        0.052325 
  12  C   -0.093826        0.075827 
  13  C    0.165666        0.027369 
  14  C   -0.219538        0.120692 
  15  H    0.132528        0.001810 
  16  C   -0.181955        0.200611 
  17  C   -0.220108        0.045078 
  18  C   -0.144866        0.148070 
  19  C    0.112510        0.098202 
  20  C   -0.193273        0.201662 
  21  C    0.112422        0.098328 
  22  C   -0.145005        0.148004 
  23  C   -0.220263        0.045254 
  24  C   -0.182138        0.200648 
  25  H    0.142475        0.001209 
  26  H    0.142473        0.001210 
  27  H    0.150139        0.000688 
  28  H    0.141938        0.003283 
  29  H    0.150172        0.000789 
  30  H    0.142711        0.002092 
  31  H    0.132896        0.002868 
  32  H    0.141936        0.003282 
  33  H    0.142705        0.002090 
  34  H    0.150173        0.000794 
 ---------------------------------------------------
   Sum:   -0.000000        2.000000 
 ---------------------------------------------------
 
*** Unpaired Electrons
 Yamaguchi Nd:         4.31
  
**************************************************
 RAS-CI total energy for state  10:   -840.289994809874
  Excitation energy (eV) =  4.168249634599
  State symmetry: A1  (C1       )
  <S^2>      :  2.0000
  Dipole Moment:   -0.0003 X    -0.2428 Y     0.0009 Z
  Trans. Moment:    0.0780 X    -0.0003 Y    -0.0000 Z
  Strength   :  0.000622
  Natural transition orbitals ( 1 -> 10 ):
   e-/hole pair  1 alpha:  ampl =  0.512041 ( 26.2%)   [8 : 9]
   e-/hole pair  2 alpha:  ampl =  0.064217 (  0.4%)   [7 : 10]
   e-/hole pair  1 beta :  ampl =  0.736135 ( 54.2%)   [8 : 9]
   e-/hole pair  2 beta :  ampl =  0.156413 (  2.4%)   [7 : 10]
   Sum of square amplitudes: 0.85

 NATURAL OCCUPATION NUMBERS (higher than 1.0E-05)
            1           2           3           4           5           6
    1   2.0000000   2.0000000   2.0000000   2.0000000   2.0000000   2.0000000
            7           8           9          10          11          12
    1   2.0000000   2.0000000   2.0000000   2.0000000   2.0000000   2.0000000
           13          14          15          16          17          18
    1   2.0000000   2.0000000   2.0000000   2.0000000   2.0000000   2.0000000
           19          20          21          22          23          24
    1   2.0000000   2.0000000   2.0000000   2.0000000   2.0000000   2.0000000
           25          26          27          28          29          30
    1   2.0000000   2.0000000   2.0000000   2.0000000   2.0000000   2.0000000
           31          32          33          34          35          36
    1   2.0000000   2.0000000   2.0000000   2.0000000   2.0000000   2.0000000
           37          38          39          40          41          42
    1   2.0000000   2.0000000   2.0000000   2.0000000   2.0000000   2.0000000
           43          44          45          46          47          48
    1   2.0000000   2.0000000   2.0000000   2.0000000   2.0000000   2.0000000
           49          50          51          52          53          54
    1   2.0000000   2.0000000   2.0000000   2.0000000   2.0000000   2.0000000
           55          56          57          58          59          60
    1   2.0000000   2.0000000   2.0000000   2.0000000   2.0000000   2.0000000
           61          62          63          64          65          66
    1   2.0000000   1.9989409   1.9978620   1.9978477   1.9950204   1.9938154
           67          68          69          70          71          72
    1   1.9925691   1.9595110   1.9435212   1.9406772   1.3527656   1.3061854
           73          74          75          76          77          78
    1   1.0235502   0.3403623   0.0616057   0.0456763   0.0233746   0.0055936
           79          80          81          82          83          84
    1   0.0055781   0.0045818   0.0021942   0.0020037   0.0008448   0.0007756
           85          86          87          88          89          90
    1   0.0006805   0.0005398   0.0004558   0.0004271   0.0003148   0.0003074
           91          92          93          94          95          96
    1   0.0002539   0.0002377   0.0002034   0.0001956   0.0001528   0.0001494
           97          98          99         100         101         102
    1   0.0001261   0.0001088   0.0001001   0.0000964   0.0000809   0.0000775
          103         104         105         106         107         108
    1   0.0000641   0.0000575   0.0000536   0.0000511   0.0000484   0.0000459
          109         110         111         112         113         114
    1   0.0000376   0.0000328   0.0000298   0.0000279   0.0000263   0.0000245
          115         116         117         118         119
    1   0.0000177   0.0000148   0.0000112   0.0000109   0.0000103

 Head-Gordon Nu:    3.00
 Head-Gordon Nu_nl: 2.96

  Amplitudes : 
  
 | HOLE  | ALPHA    | BETA     | PART  |    AMPLITUDE 
--------------------------------------------------
 |       | 11111000 | 11001000 |       |     2.6479867466220E-01
 |       | 11111000 | 01101000 |       |     6.7858821815955E-01
 |       | 11110100 | 11100000 |       |     2.2474549641742E-01
 |       | 11110010 | 11100000 |       |     4.5388348577125E-01
 |  68   | 11111000 | 11110000 |       |    -1.5682215755962E-01
--------------------------------------------------
*** Contributions RASCI wfn    Active:  86.56
                                 Hole:   7.46
                                 Part:   5.97

      Mulliken population analysis 
 ---------------------------------------------------
   Atom    Charge (a.u.)   Spin (a.u.)  
 ---------------------------------------------------
   1  C   -0.146485        0.070749 
   2  C   -0.232772        0.009366 
   3  C    0.150832        0.024866 
   4  C    0.007848        0.365866 
   5  C    0.150952        0.024832 
   6  C   -0.232795        0.009407 
   7  C   -0.254781        0.066678 
   8  C    0.163239        0.078526 
   9  H    0.132025        0.001050 
  10  C   -0.068579        0.037608 
  11  C   -0.021080        0.041341 
  12  C   -0.068745        0.037377 
  13  C    0.163242        0.078434 
  14  C   -0.254761        0.066859 
  15  H    0.132022        0.001053 
  16  C   -0.198408        0.146646 
  17  C   -0.165363        0.054218 
  18  C   -0.199923        0.193678 
  19  C    0.139818        0.000056 
  20  C   -0.209402        0.279915 
  21  C    0.139768       -0.000002 
  22  C   -0.199859        0.193842 
  23  C   -0.165425        0.053957 
  24  C   -0.198392        0.146847 
  25  H    0.141515        0.000202 
  26  H    0.141512        0.000203 
  27  H    0.151425        0.000900 
  28  H    0.142115        0.002224 
  29  H    0.151085        0.000821 
[...]
 -0.5367  -0.5196  -0.5196  -0.5284  -0.5284  -0.5079  -0.4662  -0.4661
 -0.4418  -0.4483  -0.4484  -0.3403  -0.3400  -0.3540  -0.3411  -0.2160
 -0.2158
 -- Virtual --
  0.0785   0.1007   0.1008   0.0985   0.1398   0.1466   0.1466   0.1597
  0.1597   0.1752   0.1826   0.2004   0.2004   0.2069   0.2073   0.2076
  0.2420   0.2421   0.2609   0.3220   0.3261   0.3261   0.3319   0.3320
  0.3698   0.3725   0.3725   0.3821   0.3821   0.3858   0.3927   0.3928
  0.3952   0.4168   0.4265   0.4283   0.4284   0.4314   0.4314   0.4344
  0.4370   0.4467   0.4559   0.4559   0.4639   0.4639   0.4613   0.4614
  0.4734   0.4836   0.4887   0.4887   0.4923   0.4895   0.5131   0.5132
  0.5161   0.5161   0.5475   0.5550   0.5541   0.5541   0.5602   0.5600
  0.5600   0.5653   0.5653   0.5785   0.5787   0.5826   0.5826   0.5867
  0.5867   0.5972   0.5973   0.5972   0.6046   0.6211   0.6218   0.6225
  0.6225   0.6390   0.6439   0.6440   0.6487   0.6488   0.6520   0.6650
  0.6759   0.6759   0.6817   0.6847   0.7021   0.7022   0.7037   0.7157
  0.7157   0.7234   0.7337   0.7526   0.7544   0.7544   0.7797   0.7798
  0.7852   0.7847   0.7848   0.7966   0.7967   0.8101   0.8101   0.8306
  0.8414   0.8577   0.8604   0.8605   0.8857   0.8857   0.8895   0.8897
  0.8899   0.8994   0.9063   0.9064   0.9142   0.9212   0.9309   0.9309
  0.9495   0.9535   0.9535   0.9784   0.9784   0.9866   0.9933   0.9968
  1.0015   1.0016   1.0143   1.0144   1.0174   1.0175   1.0317   1.0427
  1.0427   1.0435   1.0560   1.0640   1.0640   1.0763   1.0764   1.0899
  1.0952   1.0956   1.0957   1.1160   1.1161   1.1198   1.1189   1.1190
  1.1334   1.1334   1.1392   1.1473   1.1596   1.1597   1.1619   1.1834
  1.1837   1.1852   1.2041   1.2043   1.2059   1.2059   1.2153   1.2155
  1.2216   1.2284   1.2334   1.2551   1.2665   1.2746   1.2746   1.2774
  1.2774   1.2855   1.2880   1.2885   1.2953   1.2954   1.3026   1.3231
  1.3226   1.3226   1.3520   1.3520   1.3560   1.3560   1.4053   1.4054
  1.4344   1.4373   1.4468   1.4522   1.4589   1.4590   1.4644   1.4897
  1.4897   1.4970   1.4980   1.4980   1.5061   1.5061   1.5182   1.5182
  1.5237   1.5325   1.5325   1.5440   1.5605   1.5608   1.5658   1.5828
  1.5989   1.6098   1.6101   1.6131   1.6226   1.6226   1.6244   1.6244
  1.6315   1.6439   1.6440   1.6480   1.6534   1.6535   1.6877   1.7042
  1.7043   1.7176   1.7222   1.7418   1.7419   1.7470   1.7471   1.7763
  1.7764   1.7933   1.8206   1.8209   1.8450   1.8560   1.8561   1.8619
  1.9090   1.9134   1.9134   1.9219   1.9471   1.9472   1.9577   1.9581
  1.9620   2.0064   2.0314   2.0315   2.0378   2.0683   2.0685   2.0808
  2.1054   2.1268   2.1272   2.1754   2.1756   2.1947   2.1947   2.2192
  2.2192   2.2473   2.2517   2.3016   2.3330   2.3326   2.3326   2.3868
  2.3869   2.3875   2.3876   2.3936   2.4066   2.4404   2.4407   2.4423
  2.4513   2.4641   2.4644   2.4776   2.4812   2.4813   2.4949   2.5309
  2.5310   2.5385   2.5386   2.5570   2.5881   2.6035   2.6036   2.6065
  2.6065   2.6094   2.6776   2.6777   2.7050   2.7064   2.7069   2.7107
  2.7269   2.7277   2.7277   2.7537   2.7573   2.7574   2.7742   2.7743
  2.7770   2.7792   2.8044   2.8044   2.8087   2.8088   2.8083   2.8096
  2.8094   2.8175   2.8176   2.8362   2.8425   2.8453   2.8454   2.8511
  2.8511   2.8648   2.8773   2.8773   2.8806   2.8823   2.8998   2.8999
  2.9416   2.9415   2.9417   2.9422   2.9607   2.9675   2.9676   2.9877
  2.9953   2.9954   3.0032   3.0033   3.0082   3.0206   3.0206   3.0232
  3.0232   3.0363   3.0462   3.0505   3.0506   3.0822   3.0951   3.0952
  3.0972   3.1096   3.1124   3.1125   3.1285   3.1318   3.1415   3.1417
  3.1530   3.1680   3.1820   3.1821   3.1908   3.1910   3.2120   3.2296
  3.2298   3.2379   3.2379   3.2470   3.2483   3.2485   3.2533   3.2541
  3.2542   3.2563   3.2575   3.2762   3.2762   3.2818   3.2824   3.2824
  3.2953   3.2954   3.3028   3.3029   3.3216   3.3216   3.3239   3.3263
  3.3404   3.3406   3.3454   3.3469   3.3470   3.3507   3.3507   3.3571
  3.3741   3.3847   3.3847   3.3886   3.3919   3.3925   3.3926   3.4183
  3.4237   3.4237   3.4296   3.4296   3.4450   3.4451   3.4478   3.4567
  3.4618   3.4618   3.4657   3.4736   3.4736   3.4814   3.4822   3.4824
  3.4877   3.5109   3.5118   3.5118   3.5278   3.5278   3.5329   3.5470
  3.5488   3.5544   3.5544   3.5617   3.5620   3.5961   3.5962   3.6044
  3.6052   3.6052   3.6142   3.6143   3.6181   3.6265   3.6266   3.6345
  3.6345   3.6394   3.6482   3.6703   3.6731   3.7077   3.7077   3.7119
  3.7167   3.7229   3.7230   3.7290   3.7294   3.7334   3.7335   3.7438
  3.7545   3.7546   3.7553   3.7673   3.7762   3.7787   3.7789   3.8121
  3.8123   3.8184   3.8184   3.8356   3.8587   3.8620   3.8620   3.8818
  3.8819   3.8937   3.9069   3.9074   3.9103   3.9104   3.9181   3.9222
  3.9223   3.9345   3.9349   3.9366   3.9598   3.9599   3.9619   3.9740
  3.9741   3.9963   4.0086   4.0105   4.0243   4.0243   4.0301   4.0474
  4.0903   4.0968   4.0970   4.1040   4.1042   4.1056   4.1310   4.1312
  4.1329   4.1329   4.1463   4.1497   4.1497   4.1521   4.1621   4.1624
  4.1696   4.1775   4.1826   4.2007   4.2010   4.2076   4.2076   4.2401
  4.2457   4.2457   4.2536   4.2537   4.2628   4.2630   4.2738   4.2869
  4.2869   4.2927   4.2971   4.2984   4.2987   4.3390   4.3422   4.3663
  4.3663   4.3682   4.3682   4.3756   4.3757   4.3809   4.3975   4.3976
  4.3987   4.4368   4.4497   4.4500   4.4547   4.4631   4.4632   4.4635
  4.4696   4.4737   4.4738   4.4825   4.4827   4.5000   4.5003   4.5096
  4.5420   4.5513   4.5537   4.5541   4.5864   4.5899   4.5901   4.5996
  4.5999   4.6043   4.6111   4.6163   4.6164   4.6177   4.6179   4.6337
  4.6505   4.6517   4.6526   4.6529   4.6748   4.6816   4.6820   4.6872
  4.6943   4.6946   4.7298   4.7300   4.7411   4.7413   4.7467   4.7469
  4.7551   4.7577   4.7659   4.7659   4.8147   4.8148   4.8186   4.8187
  4.8332   4.8521   4.8779   4.9013   4.9015   4.9039   4.9181   4.9182
  4.9322   4.9322   4.9873   4.9875   5.0035   5.0201   5.0305   5.0681
  5.0681   5.0889   5.1054   5.1062   5.1064   5.1115   5.1117   5.1410
  5.1411   5.1735   5.1736   5.1897   5.2287   5.2291   5.2294   5.2525
  5.2526   5.2538   5.2541   5.2544   5.2752   5.3082   5.3168   5.3656
  5.3986   5.3986   5.4089   5.4213   5.4215   5.4255   5.4689   5.4692
  5.4816   5.4817   5.5024   5.5051   5.5052   5.5573   5.5944   5.5945
  5.6264   5.6562   5.6940   5.6942   5.7094   5.7102   5.7597   5.7601
  5.7985   5.8117   5.8203   5.8205   5.9096   5.9096   5.9142   5.9644
  5.9646   5.9682   6.0508   6.0512   6.0625   6.1797   6.1803   6.2172
  6.2173   6.2186   6.2428   6.2820   6.3226   6.3227   6.4152   6.4303
  6.4326   6.4329   6.5520   6.5522   6.6795   6.6796   6.6931   6.7466
  6.8543   6.8549   7.1470   7.1471   7.5483   8.1943  11.1713  11.1755
 12.4272  12.8276  12.8308  13.4618  13.5817  13.5838  13.9610  13.9908
 13.9924  14.0123  14.8824  14.8860  14.8933  16.0283  16.0294  16.2133
 17.1051  17.1100  17.3268
 
 Beta MOs
 -- Occupied --
-11.2468 -11.2467 -11.2464 -11.2463 -11.2463 -11.2462 -11.2462 -11.2429
-11.2428 -11.2425 -11.2373 -11.2368 -11.2368 -11.2374 -11.2374 -11.2374
-11.2360 -11.2360 -11.2359 -11.2357 -11.2357 -11.2356  -1.2095  -1.1595
 -1.1594  -1.0912  -1.0888  -1.0887  -1.0148  -1.0105  -1.0103  -1.0010
 -0.9074  -0.9074  -0.8564  -0.8562  -0.8561  -0.8124  -0.7540  -0.7473
 -0.7472  -0.7135  -0.7134  -0.6565  -0.6564  -0.6449  -0.6313  -0.6313
 -0.6205  -0.5957  -0.5824  -0.5824  -0.5648  -0.5691  -0.5530  -0.5530
 -0.5338  -0.5161  -0.5161  -0.4988  -0.4987  -0.5039  -0.4632  -0.4631
 -0.4138  -0.4033  -0.4032  -0.3153  -0.3151  -0.2934  -0.2830
 -- Virtual --
  0.0104   0.0103   0.1243   0.1202   0.1203   0.1514   0.1407   0.1475
  0.1475   0.1605   0.1605   0.1758   0.1836   0.2011   0.2012   0.2298
  0.2386   0.2387   0.2435   0.2436   0.2625   0.3230   0.3414   0.3414
  0.3332   0.3333   0.3733   0.3762   0.3762   0.3854   0.3855   0.3940
  0.3989   0.3989   0.3983   0.4187   0.4280   0.4303   0.4304   0.4434
  0.4434   0.4407   0.4434   0.4518   0.4592   0.4592   0.4675   0.4676
  0.4794   0.4795   0.4780   0.4936   0.4947   0.4947   0.4974   0.5069
  0.5153   0.5154   0.5240   0.5241   0.5673   0.5574   0.5612   0.5612
  0.5637   0.5744   0.5744   0.5727   0.5727   0.5818   0.5819   0.5928
  0.5928   0.5898   0.5898   0.6012   0.6013   0.6083   0.6068   0.6262
  0.6257   0.6321   0.6321   0.6456   0.6467   0.6467   0.6534   0.6535
  0.6630   0.6682   0.6795   0.6795   0.6850   0.6868   0.7084   0.7084
  0.7071   0.7175   0.7175   0.7269   0.7416   0.7556   0.7587   0.7587
  0.7838   0.7839   0.7874   0.7913   0.7913   0.8001   0.8002   0.8124
  0.8125   0.8397   0.8445   0.8620   0.8627   0.8628   0.8961   0.8961
  0.8919   0.8932   0.8934   0.9042   0.9144   0.9144   0.9164   0.9232
  0.9328   0.9328   0.9589   0.9569   0.9569   0.9841   0.9842   0.9975
  0.9951   0.9991   1.0050   1.0051   1.0163   1.0164   1.0220   1.0221
  1.0376   1.0455   1.0455   1.0482   1.0577   1.0669   1.0670   1.0825
  1.0825   1.0948   1.0985   1.0980   1.0983   1.1178   1.1180   1.1223
  1.1268   1.1269   1.1361   1.1362   1.1408   1.1513   1.1654   1.1656
  1.1647   1.1856   1.1859   1.1890   1.2059   1.2061   1.2104   1.2105
  1.2176   1.2178   1.2259   1.2323   1.2356   1.2600   1.2678   1.2769
  1.2770   1.2818   1.2818   1.2867   1.2900   1.2905   1.2972   1.2972
  1.3088   1.3254   1.3293   1.3292   1.3604   1.3604   1.3576   1.3576
  1.4066   1.4067   1.4438   1.4394   1.4531   1.4534   1.4612   1.4612
  1.4655   1.4940   1.4941   1.5018   1.5000   1.5003   1.5095   1.5096
  1.5251   1.5251   1.5248   1.5341   1.5342   1.5465   1.5621   1.5623
  1.5687   1.5869   1.6007   1.6112   1.6115   1.6146   1.6298   1.6299
  1.6272   1.6273   1.6344   1.6469   1.6470   1.6546   1.6577   1.6578
  1.6935   1.7077   1.7079   1.7197   1.7275   1.7439   1.7440   1.7546
  1.7547   1.7787   1.7788   1.7978   1.8253   1.8255   1.8533   1.8592
  1.8593   1.8639   1.9103   1.9175   1.9175   1.9250   1.9493   1.9493
  1.9604   1.9608   1.9647   2.0088   2.0342   2.0342   2.0411   2.0710
  2.0713   2.0840   2.1076   2.1284   2.1288   2.1773   2.1775   2.1985
  2.1985   2.2204   2.2204   2.2491   2.2531   2.3088   2.3345   2.3415
  2.3415   2.3882   2.3882   2.3982   2.3982   2.4004   2.4080   2.4422
  2.4425   2.4544   2.4529   2.4662   2.4665   2.4799   2.4883   2.4883
  2.5046   2.5403   2.5403   2.5480   2.5480   2.5640   2.5953   2.6095
  2.6096   2.6107   2.6107   2.6119   2.6811   2.6812   2.7087   2.7084
  2.7089   2.7130   2.7305   2.7298   2.7298   2.7578   2.7608   2.7608
  2.7779   2.7779   2.7813   2.7811   2.8077   2.8077   2.8127   2.8128
  2.8154   2.8129   2.8135   2.8246   2.8247   2.8404   2.8463   2.8509
  2.8509   2.8544   2.8545   2.8667   2.8815   2.8815   2.8832   2.8876
  2.9052   2.9053   2.9462   2.9464   2.9465   2.9485   2.9657   2.9702
  2.9702   2.9931   3.0009   3.0010   3.0050   3.0052   3.0106   3.0247
  3.0247   3.0257   3.0257   3.0410   3.0492   3.0575   3.0576   3.0872
  3.0977   3.0978   3.0991   3.1126   3.1158   3.1159   3.1300   3.1346
  3.1444   3.1445   3.1574   3.1736   3.1868   3.1869   3.1930   3.1931
  3.2145   3.2330   3.2333   3.2427   3.2428   3.2523   3.2507   3.2506
  3.2558   3.2591   3.2592   3.2621   3.2607   3.2804   3.2804   3.2842
  3.2878   3.2879   3.2997   3.2997   3.3054   3.3054   3.3251   3.3251
  3.3266   3.3326   3.3426   3.3428   3.3485   3.3496   3.3496   3.3563
  3.3564   3.3603   3.3777   3.3873   3.3873   3.3920   3.3951   3.3956
  3.3957   3.4223   3.4260   3.4261   3.4344   3.4344   3.4475   3.4476
  3.4505   3.4591   3.4631   3.4631   3.4692   3.4785   3.4785   3.4835
  3.4851   3.4853   3.4925   3.5123   3.5163   3.5163   3.5307   3.5307
  3.5371   3.5496   3.5506   3.5585   3.5585   3.5639   3.5641   3.6010
  3.6010   3.6072   3.6070   3.6072   3.6171   3.6172   3.6200   3.6286
  3.6287   3.6379   3.6379   3.6434   3.6538   3.6732   3.6770   3.7106
  3.7106   3.7149   3.7195   3.7259   3.7260   3.7305   3.7309   3.7352
  3.7352   3.7457   3.7576   3.7576   3.7596   3.7689   3.7788   3.7810
  3.7812   3.8147   3.8148   3.8214   3.8214   3.8379   3.8627   3.8654
  3.8654   3.8844   3.8845   3.8955   3.9096   3.9100   3.9116   3.9117
  3.9196   3.9253   3.9253   3.9367   3.9370   3.9384   3.9619   3.9620
  3.9651   3.9772   3.9773   3.9972   4.0120   4.0123   4.0259   4.0259
  4.0329   4.0498   4.0930   4.0992   4.0994   4.1055   4.1057   4.1074
  4.1320   4.1321   4.1345   4.1346   4.1485   4.1517   4.1517   4.1541
  4.1636   4.1639   4.1712   4.1797   4.1837   4.2024   4.2026   4.2088
  4.2088   4.2412   4.2477   4.2477   4.2555   4.2556   4.2652   4.2655
  4.2752   4.2888   4.2889   4.2945   4.2988   4.3002   4.3005   4.3400
  4.3443   4.3681   4.3682   4.3706   4.3706   4.3775   4.3777   4.3828
  4.3986   4.3987   4.3998   4.4383   4.4515   4.4517   4.4582   4.4651
  4.4652   4.4654   4.4720   4.4750   4.4751   4.4851   4.4853   4.5011
  4.5014   4.5122   4.5432   4.5525   4.5552   4.5556   4.5883   4.5908
  4.5910   4.6025   4.6028   4.6076   4.6122   4.6204   4.6205   4.6191
  4.6193   4.6351   4.6512   4.6527   4.6539   4.6542   4.6771   4.6827
  4.6831   4.6886   4.6969   4.6972   4.7306   4.7308   4.7423   4.7425
  4.7501   4.7504   4.7563   4.7610   4.7693   4.7694   4.8161   4.8161
  4.8196   4.8197   4.8341   4.8533   4.8805   4.9025   4.9027   4.9078
  4.9214   4.9216   4.9336   4.9336   4.9886   4.9888   5.0048   5.0210
  5.0329   5.0699   5.0700   5.0899   5.1083   5.1087   5.1090   5.1126
  5.1128   5.1420   5.1422   5.1765   5.1766   5.1918   5.2295   5.2299
  5.2308   5.2535   5.2536   5.2547   5.2575   5.2578   5.2788   5.3091
  5.3177   5.3664   5.3995   5.3995   5.4121   5.4224   5.4226   5.4266
  5.4716   5.4720   5.4826   5.4827   5.5031   5.5062   5.5063   5.5583
  5.5956   5.5957   5.6288   5.6571   5.6965   5.6966   5.7105   5.7112
  5.7605   5.7609   5.8000   5.8126   5.8211   5.8213   5.9104   5.9104
  5.9154   5.9654   5.9656   5.9691   6.0519   6.0523   6.0634   6.1806
  6.1812   6.2184   6.2185   6.2194   6.2438   6.2832   6.3236   6.3237
  6.4159   6.4312   6.4335   6.4337   6.5530   6.5531   6.6803   6.6804
  6.6939   6.7474   6.8551   6.8556   7.1478   7.1480   7.5490   8.1954
 11.1725  11.1767  12.4285  12.8289  12.8321  13.4627  13.5824  13.5844
 13.9637  13.9933  13.9948  14.0134  14.8854  14.8890  14.8951  16.0299
 16.0311  16.2147  17.1062  17.1111  17.3285
 --------------------------------------------------------------
 
          Ground-State Mulliken Net Atomic Charges

     Atom                 Charge (a.u.)
  ----------------------------------------
      1 C                    -0.176069
      2 C                    -0.195594
      3 C                     0.137261
      4 C                    -0.053461
      5 C                     0.137397
      6 C                    -0.195615
      7 C                    -0.213529
      8 C                     0.137681
      9 H                     0.132770
     10 C                    -0.053687
     11 C                    -0.025106
     12 C                    -0.053743
     13 C                     0.137681
     14 C                    -0.213553
     15 H                     0.132766
     16 C                    -0.195563
     17 C                    -0.176115
     18 C                    -0.195856
     19 C                     0.137586
     20 C                    -0.213418
     21 C                     0.137540
     22 C                    -0.195852
     23 C                    -0.176113
     24 C                    -0.195613
     25 H                     0.142100
     26 H                     0.142098
     27 H                     0.150953
     28 H                     0.142070
     29 H                     0.151205
     30 H                     0.141910
     31 H                     0.132683
     32 H                     0.142070
     33 H                     0.141906
     34 H                     0.151210
  ----------------------------------------
  Sum of atomic charges =     0.000000

 -----------------------------------------------------------------
                    Cartesian Multipole Moments
 -----------------------------------------------------------------
    Charge (ESU x 10^10)
                -0.0000
    Dipole Moment (Debye)
         X      -0.0001      Y      -0.0060      Z      -0.0023
       Tot       0.0065
    Quadrupole Moments (Debye-Ang)
        XX    -108.8320     XY       0.0003     YY    -108.8648
        XZ       0.0000     YZ      -0.0012     ZZ    -136.8420
    Octopole Moments (Debye-Ang^2)
       XXX      -0.0019    XXY      -1.6113    XYY       0.0019
       YYY       1.6656    XXZ       0.0335    XYZ      -0.0020
       YYZ      -0.1226    XZZ      -0.0000    YZZ      -0.0008
       ZZZ      -0.0020
    Hexadecapole Moments (Debye-Ang^3)
      XXXX   -3444.1353   XXXY       0.0008   XXYY   -1148.0331
      XYYY       0.0014   YYYY   -3444.2138   XXXZ      -0.0026
      XXYZ      -0.0768   XYYZ      -0.0004   YYYZ       0.1745
      XXZZ    -754.6758   XYZZ       0.0000   YYZZ    -754.5897
      XZZZ      -0.0000   YZZZ      -0.0008   ZZZZ    -161.2532
 -----------------------------------------------------------------
 Total job time:  169818.08s(wall), 155574.31s(cpu) 
 Fri Apr  5 18:10:38 2024

======= MOLDEN-FORMATTED INPUT FILE FOLLOWS =======
[Molden Format]
[Atoms] (Angs)
  C      1    6     -0.00163452     -4.22459841     -0.00216471
  C      2    6     -1.20567537     -3.54068992     -0.00119022
  C      3    6     -1.23515529     -2.12679554      0.00044974
  C      4    6     -0.00054771     -1.41572292      0.00025218
  C      5    6      1.23350949     -2.12775020      0.00051431
  C      6    6      1.20293487     -3.54162180     -0.00111662
  C      7    6     -2.43820131     -1.40640422      0.00128368
  C      8    6     -2.45924845     -0.00407650      0.00143124
  H      9    1     -3.37760539     -1.94739145      0.00158001
  C     10    6     -1.22632653      0.70851766      0.00039605
  C     11    6     -0.00000008     -0.00031235      0.00040075
  C     12    6      1.22687436      0.70756871      0.00039447
  C     13    6      2.45924464     -0.00597892      0.00147002
  C     14    6      2.43711216     -1.40829001      0.00136542
  H     15    1      3.37609747     -1.95000371      0.00169039
  C     16    6     -3.66884938      0.72918866      0.00147803
  C     17    6     -3.65813742      2.11359030      0.00004145
  C     18    6     -2.46355461      2.81432719     -0.00110404
  C     19    6     -1.22455617      2.13272646     -0.00082370
  C     20    6      0.00108897      2.81462310     -0.00147331
  C     21    6      1.22620601      2.13177849     -0.00085162
  C     22    6      2.46573175      2.81242019     -0.00117871
  C     23    6      3.65977193      2.11075932     -0.00002191
  C     24    6      3.66941263      0.72634977      0.00147821
  H     25    1     -2.14360372     -4.08177924     -0.00170318
  H     26    1      2.14044398     -4.08343699     -0.00156922
  H     27    1     -0.00205334     -5.30744510     -0.00398033
  H     28    1     -4.60696501      0.18841636      0.00251575
  H     29    1     -4.59528024      2.65526535     -0.00016329
  H     30    1     -2.46377008      3.89752682     -0.00216033
  H     31    1      0.00150810      3.89901424     -0.00237546
  H     32    1      4.60710944      0.18485169      0.00252971
  H     33    1      2.46678488      3.89561925     -0.00227273
  H     34    1      4.59733415      2.65170835     -0.00027568

======= END OF MOLDEN-FORMATTED INPUT FILE =======


        *************************************************************
        *                                                           *
        *  Thank you very much for using Q-Chem.  Have a nice day.  *
        *                                                           *
        *************************************************************


