                  Welcome to Q-Chem
     A Quantum Leap Into The Future Of Chemistry


 Q-Chem 6.0 (devel), Q-Chem, Inc., Pleasanton, CA (2022)

 E. Epifanovsky,  A. T. B. Gilbert,  Xintian Feng,  Joonho Lee,  Yuezhi Mao,  
 N. Mardirossian,  P. Pokhilko,  A. White,  M. Wormit,  M. P. Coons,  
 A. L. Dempwolff,  Zhengting Gan,  D. Hait,  P. R. Horn,  L. D. Jacobson,  
 I. Kaliman,  J. Kussmann,  A. W. Lange,  Ka Un Lao,  D. S. Levine,  Jie Liu,  
 S. C. McKenzie,  A. F. Morrison,  K. Nanda,  F. Plasser,  D. R. Rehn,  
 M. L. Vidal,  Zhi-Qiang You,  Ying Zhu,  B. Alam,  B. Albrecht,  
 A. Aldossary,  E. Alguire,  J. H. Andersen,  V. Athavale,  D. Barton,  
 K. Begam,  A. Behn,  N. Bellonzi,  Y. A. Bernard,  E. J. Berquist,  
 H. Burton,  A. Carreras,  K. Carter-Fenk,  Romit Chakraborty,  
 Chandrima Chakravarty,  Junhan Chen,  A. D. Chien,  K. D. Closser,  
 V. Cofer-Shabica,  L. Cunha,  S. Dasgupta,  Jia Deng,  M. de Wergifosse,  
 M. Diedenhofen,  Hainam Do,  S. Ehlert,  Po-Tung Fang,  S. Fatehi,  
 Qingguo Feng,  T. Friedhoff,  B. Ganoe,  J. Gayvert,  Qinghui Ge,  
 G. Gidofalvi,  M. Goldey,  J. Gomes,  C. Gonzalez-Espinoza,  S. Gulania,  
 A. Gunina,  J. A. Gyamfi,  M. W. D. Hanson-Heine,  P. H. P. Harbach,  
 A. W. Hauser,  M. F. Herbst,  M. Hernandez Vera,  M. Hodecker,  
 Z. C. Holden,  S. Houck,  Xunkun Huang,  Kerwin Hui,  B. C. Huynh,  
 K. Ikeda,  M. Ivanov,  Hyunjun Ji,  Zuxin Jin,  Hanjie Jiang,  B. Kaduk,  
 S. Kaehler,  R. Kang,  K. Khistyaev,  Jaehoon Kim,  Yongbin Kim,  
 P. Klunzinger,  Z. Koczor-Benda,  Joong Hoon Koh,  D. Kosenkov,  
 Saikiran Kotaru,  L. Koulias,  T. Kowalczyk,  C. M. Krauter,  K. Kue,  
 A. Kunitsa,  T. Kus,  A. Landau,  K. V. Lawler,  D. Lefrancois,  S. Lehtola,  
 Rain Li,  Shaozhi Li,  Yi-Pei Li,  Jiashu Liang,  M. Liebenthal,  
 Hung-Hsuan Lin,  You-Sheng Lin,  Fenglai Liu,  Kuan-Yu Liu,  
 M. Loipersberger,  A. Luenser,  C. Malbon,  A. Manjanath,  P. Manohar,  
 E. Mansoor,  S. F. Manzer,  Shan-Ping Mao,  A. V. Marenich,  T. Markovich,  
 S. Mason,  F. Matz,  S. A. Maurer,  P. F. McLaughlin,  M. F. S. J. Menger,  
 J.-M. Mewes,  S. A. Mewes,  P. Morgante,  Mohammad Mostafanejad,  
 J. W. Mullinax,  K. J. Oosterbaan,  G. Paran,  V. Parravicini,  
 Alexander C. Paul,  Suranjan K. Paul,  F. Pavosevic,  Zheng Pei,  S. Prager,  
 E. I. Proynov,  E. Ramos,  B. Rana,  A. E. Rask,  A. Rettig,  R. M. Richard,  
 F. Rob,  E. Rossomme,  T. Scheele,  M. Scheurer,  M. Schneider,  
 P. E. Schneider,  N. Sergueev,  S. M. Sharada,  Hengyuan Shen,  
 W. Skomorowski,  D. W. Small,  C. J. Stein,  Yingli Su,  Yu-Chuan Su,  
 E. J. Sundstrom,  Zhen Tao,  J. Thirman,  Hung-Yi Tsai,  T. Tsuchimochi,  
 N. M. Tubman,  C. Utku,  S. P. Veccham,  O. Vydrov,  J. Wenzel,  
 Jonathan Wong,  J. Witte,  A. Yamada,  Chou-Hsun Yang,  Kun Yao,  
 S. Yeganeh,  S. R. Yost,  A. Zech,  F. Zeller,  Igor Ying Zhang,  
 Xing Zhang,  Yu Zhang,  D. Zuev,  A. Aspuru-Guzik,  A. T. Bell,  
 N. A. Besley,  K. B. Bravaya,  B. R. Brooks,  D. Casanova,  Jeng-Da Chai,  
 Hsing-Ta Chen,  S. Coriani,  C. J. Cramer,  A. E. DePrince, III,  
 R. A. DiStasio Jr.,  A. Dreuw,  B. D. Dunietz,  T. R. Furlani,  
 W. A. Goddard III,  S. Grimme,  S. Hammes-Schiffer,  T. Head-Gordon,  
 W. J. Hehre,  Chao-Ping Hsu,  T.-C. Jagau,  Yousung Jung,  A. Klamt,  
 Jing Kong,  D. S. Lambrecht,  Xiangyuan Li,  WanZhen Liang,  N. J. Mayhall,  
 C. W. McCurdy,  J. B. Neaton,  T. Neudecker,  C. Ochsenfeld,  
 J. A. Parkhill,  R. Peverati,  V. A. Rassolov,  Haisheng Ren,  Yihan Shao,  
 L. V. Slipchenko,  R. P. Steele,  J. E. Subotnik,  A. J. W. Thom,  
 A. Tkatchenko,  D. G. Truhlar,  T. Van Voorhis,  Fan Wang,  
 T. A. Wesolowski,  K. B. Whaley,  H. L. Woodcock III,  P. M. Zimmerman,  
 S. Faraji,  P. M. W. Gill,  M. Head-Gordon,  J. M. Herbert,  A. I. Krylov

 Contributors to earlier versions of Q-Chem not listed above: 
 R. D. Adamson,  B. Austin,  R. Baer,  J. Baker,  G. J. O. Beran,  
 K. Brandhorst,  S. T. Brown,  E. F. C. Byrd,  Arup K. Chakraborty,  
 G. K. L. Chan,  Chun-Min Chang,  Yunqing Chen,  C.-L. Cheng,  
 Siu Hung Chien,  D. M. Chipman,  D. L. Crittenden,  H. Dachsel,  
 R. J. Doerksen,  A. D. Dutoi,  R. G. Edgar,  J. Fosso-Tande,  
 L. Fusti-Molnar,  D. Ghosh,  A. Ghysels,  A. Golubeva-Zadorozhnaya,  
 J. Gonthier,  M. S. Gordon,  S. R. Gwaltney,  G. Hawkins,  J. E. Herr,  
 A. Heyden,  S. Hirata,  E. G. Hohenstein,  G. Kedziora,  F. J. Keil,  
 C. Kelley,  Jihan Kim,  R. A. King,  R. Z. Khaliullin,  P. P. Korambath,  
 W. Kurlancheek,  A. Laurent,  A. M. Lee,  M. S. Lee,  S. V. Levchenko,  
 Ching Yeh Lin,  D. Liotard,  E. Livshits,  R. C. Lochan,  I. Lotan,  
 L. A. Martinez-Martinez,  P. E. Maslen,  N. Nair,  D. P. O'Neill,  
 D. Neuhauser,  E. Neuscamman,  C. M. Oana,  R. Olivares-Amaya,  R. Olson,  
 T. M. Perrine,  B. Peters,  P. A. Pieniazek,  A. Prociuk,  Y. M. Rhee,  
 J. Ritchie,  M. A. Rohrdanz,  E. Rosta,  N. J. Russ,  H. F. Schaefer III,  
 M. W. Schmidt,  N. E. Schultz,  S. Sharma,  N. Shenvi,  C. D. Sherrill,  
 A. C. Simmonett,  A. Sodt,  T. Stein,  D. Stuck,  K. S. Thanthiriwatte,  
 V. Vanovschi,  L. Vogt,  Tao Wang,  A. Warshel,  M. A. Watson,  
 C. F. Williams,  Q. Wu,  X. Xu,  Jun Yang,  W. Zhang,  Yan Zhao

   Please cite Q-Chem as follows:
  "Software for the frontiers of quantum chemistry:
   An overview of developments in the Q-Chem 5 package"
   J. Chem. Phys. 155, 084801 (2021)
   https://doi.org/10.1063/5.0055522 (open access)

 Q-Chem 6.0.1 for Intel X86 EM64T Linux

 Parts of Q-Chem use Armadillo 9.900.5 (Nocturnal Misbehaviour).
 http://arma.sourceforge.net/

 Q-Chem begins on Thu Apr 18 18:22:07 2024  

 Host: atlas-304
0

     Scratch files written to ./qchem23573//
 Processing $rem in /scratch/abel/SOFTWARE/qchem/config/preferences:
 Processing $rem in /dipc/acebg/.qchemrc:

 Checking the input file for inconsistencies... 	...done.

--------------------------------------------------------------
User input:
--------------------------------------------------------------
$comment
 TD-DFT/TDA CALCULATION
$end

$molecule
 READ 3Tm_triplet.molecule
$end

$rem
!**REFERENCE***     
JOBTYPE            SP
EXCHANGE           GEN   !gen:specify in $xc_functional
CORRELATION        NONE
BASIS              cc-pVDZ  

!***SCF REFERENCE***
!INPUT_BOHR         TRUE
!SKIP_SCFMAN        FALSE
UNRESTRICTED        TRUE !rectricted-TDDFT not avail in doublets
!SCF_GUESS          core
!SCF_GUESS_MIX      FALSE
!SCF_GUESS_ALWAYS   FALSE
MAX_SCF_CYCLES      999
!SCF_CONVERGENCE    10
!SCF_ALGORITHM       DIIS_GDM !DIIS,DM,DIIS_DM,GDM,DIIS_GDM,GD

!SYMMETRY           TRUE !use of symmetry for calculating integrals
!SYM_IGNORE         FALSE !turn off using symmetry
!SYM_TOL            5 !tolerance for determining point group

!THRESH             14
!SCF_FINAL_PRINT    2 !0,1,2,3

!****CIS****
CIS_N_ROOTS        50
!CIS_CONVERGENCE   10
MAX_CIS_CYCLES     200
!CIS_SINGLETS      true
!CIS_TRIPLETS      true
CALC_SOC           2 !not available in doublets in TDDFT
STS_ANGMOM        true !orbit. ang. moment. between states
!RPA                FALSE !in default RPA=1 and TDA calc used as guess of TDDFT

!****MEMORY****
!MEM_TOTAL          80000        !Default 2000 MB
!MEM_STATIC         25000         !Default 64 MB

!**Molecular Properties and Analysis **
!POP_MULLIKEN       FALSE   !Run Mulliken population analysis
!LOWDIN_POPULATION  FALSE  !Run Löwdin population analysis
GUI                2
!STATE_ANALYSIS     TRUE
!MOLDEN_FORMAT      FALSE
!PRINT_ORBITALS     5
!CIS_MOMENTS        TRUE !TDA Excited-State Multipoles
$end

$xc_functional
!**50-50 functional**
X  HF    0.50
X  S     0.08
X  B     0.42
C  VWN   0.19
C  LYP   0.81
$end

--------------------------------------------------------------
 ----------------------------------------------------------------
             Standard Nuclear Orientation (Angstroms)
    I     Atom           X                Y                Z
 ----------------------------------------------------------------
    1      C      -0.0016345247    -4.2245984112    -0.0021647123
    2      C      -1.2056753702    -3.5406899239    -0.0011902204
    3      C      -1.2351552946    -2.1267955361     0.0004497424
    4      C      -0.0005477136    -1.4157229174     0.0002521840
    5      C       1.2335094865    -2.1277502004     0.0005143080
    6      C       1.2029348653    -3.5416217969    -0.0011166219
    7      C      -2.4382013078    -1.4064042224     0.0012836782
    8      C      -2.4592484466    -0.0040765021     0.0014312421
    9      H      -3.3776053888    -1.9473914464     0.0015800112
   10      C      -1.2263265326     0.7085176553     0.0003960502
   11      C      -0.0000000820    -0.0003123471     0.0004007512
   12      C       1.2268743590     0.7075687110     0.0003944687
   13      C       2.4592446361    -0.0059789229     0.0014700218
   14      C       2.4371121585    -1.4082900078     0.0013654230
   15      H       3.3760974711    -1.9500037143     0.0016903942
   16      C      -3.6688493766     0.7291886597     0.0014780287
   17      C      -3.6581374154     2.1135902999     0.0000414487
   18      C      -2.4635546076     2.8143271949    -0.0011040362
   19      C      -1.2245561711     2.1327264619    -0.0008236958
   20      C       0.0010889730     2.8146230973    -0.0014733051
   21      C       1.2262060104     2.1317784942    -0.0008516216
   22      C       2.4657317529     2.8124201907    -0.0011787105
   23      C       3.6597719315     2.1107593236    -0.0000219063
   24      C       3.6694126295     0.7263497739     0.0014782092
   25      H      -2.1436037227    -4.0817792401    -0.0017031750
   26      H       2.1404439769    -4.0834369914    -0.0015692173
   27      H      -0.0020533359    -5.3074451045    -0.0039803341
   28      H      -4.6069650103     0.1884163559     0.0025157460
   29      H      -4.5952802392     2.6552653529    -0.0001632938
   30      H      -2.4637700826     3.8975268173    -0.0021603268
   31      H       0.0015081049     3.8990142362    -0.0023754572
   32      H       4.6071094394     0.1848516853     0.0025297117
   33      H       2.4667848774     3.8956192549    -0.0022727345
   34      H       4.5973341506     2.6517083496    -0.0002756821
 ----------------------------------------------------------------
 Molecular Point Group                 C1    NOp =  1
 Largest Abelian Subgroup              C1    NOp =  1
 Nuclear Repulsion Energy =        1591.97885601 hartrees
 There are       73 alpha and       71 beta electrons
 Requested basis set is cc-pVDZ
 There are 168 shells and 368 basis functions

 Total QAlloc Memory Limit   2000 MB
 Mega-Array Size       188 MB
 MEM_STATIC part       192 MB

 A cutoff of  1.0D-12 yielded  11214 shell pairs
 There are     54682 function pairs (     61398 Cartesian)
 Smallest overlap matrix eigenvalue = 5.48E-05

 Scale SEOQF with 1.000000e-01/1.000000e-02/1.000000e+00

 Standard Electronic Orientation quadrupole field applied
 Nucleus-field energy     =     0.0000000317 hartrees
 Guess from superposition of atomic densities
 Warning:  Energy on first SCF cycle will be non-variational
 SAD guess density has 144.000000 electrons

 -----------------------------------------------------------------------
  General SCF calculation program by
  Eric Jon Sundstrom, Paul Horn, Yuezhi Mao, Dmitri Zuev, Alec White,
  David Stuck, Shaama M.S., Shane Yost, Joonho Lee, David Small,
  Daniel Levine, Susi Lehtola, Hugh Burton, Evgeny Epifanovsky,
  Bang C. Huynh
 -----------------------------------------------------------------------
 Exchange:     0.5000 Hartree-Fock + 0.0800 Slater + 0.4200 B88
 Correlation:  0.1900 VWN5 + 0.8100 LYP
 Using SG-1 standard quadrature grid
 A unrestricted SCF calculation will be
 performed using DIIS
 SCF converges when DIIS error is below 1.0e-08
 ---------------------------------------
  Cycle       Energy         DIIS error
 ---------------------------------------
    1    -853.2520072469      2.25e-02  
    2    -844.9087808807      1.24e-03  
    3    -845.0213120627      6.87e-04  
    4    -845.0591123212      1.76e-04  
    5    -845.0635596898      1.16e-04  
    6    -845.0655939380      5.79e-05  
    7    -845.0673796416      4.21e-05  
    8    -845.0682995960      1.99e-05  
    9    -845.0684282950      7.16e-06  
   10    -845.0684433231      4.47e-06  
   11    -845.0684490461      1.25e-06  
   12    -845.0684495574      5.83e-07  
   13    -845.0684496144      2.18e-07  
   14    -845.0684496334      9.60e-08  
   15    -845.0684496368      4.61e-08  
   16    -845.0684496376      2.02e-08  
   17    -845.0684496377      1.26e-08  
   18    -845.0684496377      4.89e-09  Convergence criterion met
 ---------------------------------------
 SCF time:   CPU 469.95s  wall 474.00s 
<S^2> =          2.382358459
 SCF   energy in the final basis set =     -845.0684496377
 Total energy in the final basis set =     -845.0684496377
 

 CIS/TDDFT memory preview:
 --------------------------
	NOV = NOa*NVa + NOb*NVb = 42622
	NRoots = 50, max iter = 200, max vectors = 10000
	Size of each subspace vector: 0.33 Mb
	Davidson algorithm may add up to 2 x NOV x NRoots (= 32.5 Mb) per iteration
	Max memory = 6503.6 Mb (worst case scenario)
	Currently available memory = 2000.0 Mb

	In case of problems:
	(a) increase memory (MEM_TOTAL = 6504 can hold 10000 subspace vectors), or
	(b) request fewer states (CIS_N_ROOTS = 15 will fit in current MEM_TOTAL), or
	(c) reduce MAX_CIS_SUBSPACE (= 3075 will fit in current MEM_TOTAL).
	Reducing MAX_CIS_SUBSPACE may hamper convergence.

 Direct TDDFT/TDA calculation will be performed
 Exchange:     0.5000 Hartree-Fock + 0.0800 Slater + 0.4200 B88
 Correlation:  0.1900 VWN5 + 0.8100 LYP
 Using SG-1 standard quadrature grid
 CIS energy converged when residual is below 10e- 6
 ---------------------------------------------------
 Iter    Rts Conv    Rts Left    Ttl Dev     Max Dev
 ---------------------------------------------------
   1         0          50      0.016050    0.000726
   2         0          50      0.005741    0.000386
   3         0          50      0.002921    0.000265
   4         0          50      0.001168    0.000142
   5        19          31      0.000341    0.000046
   6        34          16      0.001255    0.000245
   7        40          10      0.000519    0.000125
   8        40          10      0.000193    0.000049
   9        42           8      0.000067    0.000017
  10        42           8      0.000035    0.000008
  11        47           3      0.000020    0.000003
  12        50           0      0.000014    0.000001    Roots Converged
 ---------------------------------------------------
 
 ---------------------------------------------------
         TDDFT/TDA Excitation Energies              
 ---------------------------------------------------

 Excited state   1: excitation energy (eV) =    3.4050
 Total energy for state  1:                  -844.94331973 au
    <S**2>     :  2.3586
    Trans. Mom.: -0.1024 X  -0.0000 Y  -0.0000 Z
    Strength   :     0.0008740793
    S(    1) --> V(    3) amplitude =  0.1812 alpha
    S(    2) --> V(    1) amplitude =  0.6150 alpha
    S(    2) --> V(    2) amplitude =  0.1831 alpha
    D(   68) --> S(    2) amplitude = -0.1846 beta
    D(   69) --> S(    1) amplitude = -0.1862 beta
    D(   71) --> S(    1) amplitude =  0.6397 beta

 Excited state   2: excitation energy (eV) =    3.4069
 Total energy for state  2:                  -844.94324926 au
    <S**2>     :  2.3589
    Trans. Mom.: -0.0000 X   0.1025 Y  -0.0000 Z
    Strength   :     0.0008762956
    S(    1) --> V(    1) amplitude =  0.6145 alpha
    S(    1) --> V(    2) amplitude = -0.1834 alpha
    S(    2) --> V(    3) amplitude =  0.1824 alpha
    D(   68) --> S(    1) amplitude = -0.1851 beta
    D(   69) --> S(    2) amplitude =  0.1859 beta
    D(   71) --> S(    2) amplitude =  0.6396 beta

 Excited state   3: excitation energy (eV) =    3.6407
 Total energy for state  3:                  -844.93465741 au
    <S**2>     :  2.3781
    Trans. Mom.:  0.0003 X  -0.1561 Y  -0.0001 Z
    Strength   :     0.0021722434
    S(    1) --> V(    1) amplitude =  0.1572 alpha
    S(    1) --> V(    2) amplitude =  0.2654 alpha
    S(    2) --> V(    3) amplitude = -0.2663 alpha
    S(    2) --> V(    4) amplitude = -0.4522 alpha
    D(   68) --> S(    1) amplitude =  0.2244 beta
    D(   69) --> S(    2) amplitude = -0.2254 beta
    D(   70) --> S(    1) amplitude =  0.6139 beta
    D(   71) --> S(    2) amplitude =  0.2497 beta

 Excited state   4: excitation energy (eV) =    3.6410
 Total energy for state  4:                  -844.93464548 au
    <S**2>     :  2.3785
    Trans. Mom.: -0.1550 X  -0.0004 Y   0.0000 Z
    Strength   :     0.0021425053
    S(    1) --> V(    3) amplitude =  0.2648 alpha
    S(    1) --> V(    4) amplitude = -0.4529 alpha
    S(    2) --> V(    1) amplitude = -0.1569 alpha
    S(    2) --> V(    2) amplitude =  0.2656 alpha
    D(   68) --> S(    2) amplitude = -0.2265 beta
    D(   69) --> S(    1) amplitude = -0.2253 beta
    D(   70) --> S(    2) amplitude =  0.6128 beta
    D(   71) --> S(    1) amplitude = -0.2505 beta

 Excited state   5: excitation energy (eV) =    3.7059
 Total energy for state  5:                  -844.93226046 au
    <S**2>     :  2.3809
    Trans. Mom.: -0.0007 X   0.0000 Y   0.0000 Z
    Strength   :     0.0000000422
    S(    1) --> V(    3) amplitude =  0.5544 alpha
    S(    2) --> V(    2) amplitude = -0.5540 alpha
    D(   68) --> S(    2) amplitude = -0.3989 beta
    D(   69) --> S(    1) amplitude =  0.3982 beta

 Excited state   6: excitation energy (eV) =    3.8855
 Total energy for state  6:                  -844.92565938 au
    <S**2>     :  2.4186
    Trans. Mom.:  0.0048 X  -0.0000 Y  -0.0000 Z
    Strength   :     0.0000021875
    S(    1) --> V(    3) amplitude = -0.3981 alpha
    S(    2) --> V(    2) amplitude =  0.3999 alpha
    D(   68) --> S(    2) amplitude = -0.5519 beta
    D(   69) --> S(    1) amplitude =  0.5546 beta

 Excited state   7: excitation energy (eV) =    4.0843
 Total energy for state  7:                  -844.91835460 au
    <S**2>     :  2.4091
    Trans. Mom.:  0.6272 X   0.0011 Y   0.0000 Z
    Strength   :     0.0393657422
    S(    1) --> V(    4) amplitude =  0.2713 alpha
    S(    2) --> V(    1) amplitude =  0.6633 alpha
    D(   70) --> S(    2) amplitude =  0.2675 beta
    D(   71) --> S(    1) amplitude = -0.5528 beta

 Excited state   8: excitation energy (eV) =    4.0846
 Total energy for state  8:                  -844.91834382 au
    <S**2>     :  2.4093
    Trans. Mom.:  0.0011 X  -0.6209 Y   0.0008 Z
    Strength   :     0.0385798476
    S(    1) --> V(    1) amplitude =  0.6634 alpha
    S(    2) --> V(    4) amplitude = -0.2712 alpha
    D(   70) --> S(    1) amplitude = -0.2679 beta
    D(   71) --> S(    2) amplitude = -0.5525 beta

 Excited state   9: excitation energy (eV) =    4.1445
 Total energy for state  9:                  -844.91614296 au
    <S**2>     :  2.7890
    Trans. Mom.:  0.0000 X   0.0054 Y   0.0000 Z
    Strength   :     0.0000029261
    D(   69) --> V(    3) amplitude =  0.1560 alpha
    D(   70) --> V(    2) amplitude =  0.1553 alpha
    D(   71) --> V(    1) amplitude =  0.1610 alpha
    S(    1) --> V(    2) amplitude =  0.4639 alpha
    S(    2) --> V(    3) amplitude =  0.4577 alpha
    D(   68) --> S(    1) amplitude = -0.3902 beta
    D(   68) --> V(    3) amplitude = -0.1593 beta
    D(   69) --> S(    2) amplitude = -0.3928 beta
    D(   69) --> V(    2) amplitude = -0.1597 beta
    D(   71) --> V(    1) amplitude =  0.1813 beta

 Excited state  10: excitation energy (eV) =    4.2644
 Total energy for state 10:                  -844.91173556 au
    <S**2>     :  2.4296
    Trans. Mom.:  0.8633 X  -0.0014 Y   0.0000 Z
    Strength   :     0.0778625170
    S(    1) --> V(    3) amplitude =  0.5462 alpha
    S(    1) --> V(    4) amplitude =  0.2781 alpha
    S(    2) --> V(    2) amplitude =  0.5444 alpha
    D(   70) --> S(    2) amplitude = -0.4073 beta
    D(   71) --> S(    1) amplitude = -0.2025 beta

 Excited state  11: excitation energy (eV) =    4.2650
 Total energy for state 11:                  -844.91171549 au
    <S**2>     :  2.4297
    Trans. Mom.: -0.0014 X  -0.8671 Y   0.0000 Z
    Strength   :     0.0785574192
    S(    1) --> V(    2) amplitude = -0.5432 alpha
    S(    2) --> V(    3) amplitude =  0.5485 alpha
    S(    2) --> V(    4) amplitude = -0.2793 alpha
    D(   70) --> S(    1) amplitude =  0.4055 beta
    D(   71) --> S(    2) amplitude = -0.2028 beta

 Excited state  12: excitation energy (eV) =    4.3573
 Total energy for state 12:                  -844.90832066 au
    <S**2>     :  2.4591
    Trans. Mom.:  0.6150 X  -0.0108 Y  -0.0000 Z
    Strength   :     0.0403870098
    S(    1) --> V(    3) amplitude =  0.2130 alpha
    S(    1) --> V(    4) amplitude = -0.2186 alpha
    S(    2) --> V(    2) amplitude =  0.2124 alpha
    D(   65) --> S(    1) amplitude = -0.1664 beta
    D(   68) --> S(    2) amplitude =  0.5736 beta
    D(   69) --> S(    1) amplitude =  0.5724 beta
    D(   70) --> S(    2) amplitude =  0.1666 beta
    D(   71) --> S(    1) amplitude =  0.2249 beta
    D(   71) --> V(    3) amplitude =  0.1958 beta

 Excited state  13: excitation energy (eV) =    4.3574
 Total energy for state 13:                  -844.90831873 au
    <S**2>     :  2.4594
    Trans. Mom.: -0.0109 X  -0.6113 Y  -0.0000 Z
    Strength   :     0.0399089867
    S(    1) --> V(    2) amplitude = -0.2113 alpha
    S(    2) --> V(    3) amplitude =  0.2089 alpha
    S(    2) --> V(    4) amplitude =  0.2189 alpha
    D(   65) --> S(    2) amplitude = -0.1668 beta
    D(   68) --> S(    1) amplitude =  0.5742 beta
    D(   69) --> S(    2) amplitude = -0.5731 beta
    D(   70) --> S(    1) amplitude = -0.1670 beta
    D(   71) --> S(    2) amplitude =  0.2259 beta
    D(   71) --> V(    2) amplitude =  0.1959 beta

 Excited state  14: excitation energy (eV) =    4.8471
 Total energy for state 14:                  -844.89032042 au
    <S**2>     :  2.3711
    Trans. Mom.:  0.0006 X  -2.3791 Y  -0.0002 Z
    Strength   :     0.6721327361
    S(    1) --> V(    1) amplitude =  0.2905 alpha
    S(    2) --> V(    4) amplitude =  0.6945 alpha
    D(   70) --> S(    1) amplitude =  0.5125 beta
    D(   71) --> S(    2) amplitude = -0.2598 beta
    D(   71) --> V(    2) amplitude =  0.1935 beta

 Excited state  15: excitation energy (eV) =    4.8475
 Total energy for state 15:                  -844.89030698 au
    <S**2>     :  2.3710
    Trans. Mom.: -2.3812 X  -0.0006 Y   0.0000 Z
    Strength   :     0.6734163760
    S(    1) --> V(    4) amplitude =  0.6945 alpha
    S(    2) --> V(    1) amplitude = -0.2901 alpha
    D(   70) --> S(    2) amplitude =  0.5128 beta
    D(   71) --> S(    1) amplitude =  0.2595 beta
    D(   71) --> V(    3) amplitude = -0.1932 beta

 Excited state  16: excitation energy (eV) =    4.8918
 Total energy for state 16:                  -844.88867960 au
    <S**2>     :  3.8954
    Trans. Mom.: -0.0000 X  -0.0074 Y   0.0000 Z
    Strength   :     0.0000065463
    D(   68) --> V(    4) amplitude = -0.2706 alpha
    D(   69) --> V(    3) amplitude = -0.3065 alpha
    D(   70) --> V(    2) amplitude = -0.3052 alpha
    D(   71) --> V(    1) amplitude = -0.2992 alpha
    S(    1) --> V(    2) amplitude =  0.1519 alpha
    S(    2) --> V(    3) amplitude =  0.1517 alpha
    D(   68) --> V(    3) amplitude =  0.3319 beta
    D(   69) --> V(    2) amplitude =  0.3332 beta
    D(   70) --> V(    4) amplitude = -0.2913 beta
    D(   71) --> V(    1) amplitude = -0.3487 beta

 Excited state  17: excitation energy (eV) =    4.9528
 Total energy for state 17:                  -844.88643914 au
    <S**2>     :  3.4790
    Trans. Mom.:  0.0000 X   0.0008 Y  -0.0000 Z
    Strength   :     0.0000000758
    D(   69) --> V(    3) amplitude = -0.1621 alpha
    D(   70) --> V(    2) amplitude = -0.1591 alpha
    D(   71) --> V(    1) amplitude =  0.4430 alpha
    S(    1) --> V(    9) amplitude =  0.2116 alpha
    S(    2) --> V(   10) amplitude =  0.2117 alpha
    D(   66) --> S(    1) amplitude =  0.2518 beta
    D(   67) --> S(    2) amplitude =  0.2518 beta
    D(   68) --> S(    1) amplitude =  0.2538 beta
    D(   68) --> V(    3) amplitude =  0.1646 beta
    D(   69) --> S(    2) amplitude =  0.2534 beta
    D(   69) --> V(    2) amplitude =  0.1633 beta
    D(   71) --> V(    1) amplitude =  0.4994 beta

 Excited state  18: excitation energy (eV) =    4.9912
 Total energy for state 18:                  -844.88502545 au
    <S**2>     :  2.4203
    Trans. Mom.:  0.0000 X   0.0064 Y  -0.0003 Z
    Strength   :     0.0000049934
    S(    1) --> V(    2) amplitude =  0.4749 alpha
    S(    2) --> V(    3) amplitude =  0.4760 alpha
    D(   68) --> S(    1) amplitude =  0.4786 beta
    D(   69) --> S(    2) amplitude =  0.4774 beta

 Excited state  19: excitation energy (eV) =    5.1235
 Total energy for state 19:                  -844.88016450 au
    <S**2>     :  3.6861
    Trans. Mom.: -0.0200 X  -0.0000 Y   0.0000 Z
    Strength   :     0.0000504040
    D(   68) --> V(    2) amplitude =  0.2458 alpha
    D(   69) --> V(    2) amplitude =  0.2836 alpha
    D(   70) --> V(    3) amplitude =  0.2740 alpha
    D(   70) --> V(    4) amplitude =  0.2640 alpha
    S(    2) --> V(    8) amplitude =  0.2673 alpha
    D(   65) --> S(    1) amplitude = -0.3176 beta
    D(   66) --> S(    2) amplitude =  0.1546 beta
    D(   67) --> S(    1) amplitude =  0.1555 beta
    D(   68) --> V(    2) amplitude = -0.2862 beta
    D(   69) --> V(    3) amplitude = -0.2896 beta
    D(   69) --> V(    4) amplitude =  0.2184 beta
    D(   70) --> V(    2) amplitude = -0.3327 beta

 Excited state  20: excitation energy (eV) =    5.1247
 Total energy for state 20:                  -844.88011916 au
    <S**2>     :  3.6853
    Trans. Mom.:  0.0000 X  -0.0210 Y  -0.0001 Z
    Strength   :     0.0000555572
    D(   68) --> V(    3) amplitude =  0.2458 alpha
    D(   69) --> V(    3) amplitude = -0.2835 alpha
    D(   69) --> V(    4) amplitude =  0.2676 alpha
    D(   70) --> V(    2) amplitude =  0.2865 alpha
    S(    1) --> V(    8) amplitude = -0.2754 alpha
    D(   65) --> S(    2) amplitude =  0.3171 beta
    D(   66) --> S(    1) amplitude = -0.1557 beta
    D(   67) --> S(    2) amplitude =  0.1561 beta
    D(   68) --> V(    3) amplitude =  0.2908 beta
    D(   68) --> V(    4) amplitude =  0.2181 beta
    D(   69) --> V(    2) amplitude = -0.2909 beta
    D(   70) --> V(    3) amplitude = -0.3317 beta

 Excited state  21: excitation energy (eV) =    5.4041
 Total energy for state 21:                  -844.86985214 au
    <S**2>     :  3.8655
    Trans. Mom.: -0.0001 X   0.3536 Y   0.0001 Z
    Strength   :     0.0165559592
    D(   70) --> V(    1) amplitude =  0.5218 alpha
    D(   71) --> V(    2) amplitude =  0.2808 alpha
    D(   69) --> V(    1) amplitude = -0.2529 beta
    D(   71) --> V(    2) amplitude =  0.5460 beta

 Excited state  22: excitation energy (eV) =    5.4062
 Total energy for state 22:                  -844.86977480 au
    <S**2>     :  3.8653
    Trans. Mom.: -0.3535 X  -0.0001 Y   0.0000 Z
    Strength   :     0.0165555443
    D(   69) --> V(    1) amplitude =  0.5266 alpha
    D(   70) --> V(    3) amplitude = -0.1872 alpha
    D(   71) --> V(    3) amplitude =  0.2358 alpha
    D(   68) --> V(    1) amplitude = -0.2378 beta
    D(   68) --> V(    2) amplitude =  0.1519 beta
    D(   71) --> V(    3) amplitude =  0.5462 beta

 Excited state  23: excitation energy (eV) =    5.6100
 Total energy for state 23:                  -844.86228427 au
    <S**2>     :  3.2358
    Trans. Mom.:  0.0003 X   0.0000 Y   0.0000 Z
    Strength   :     0.0000000095
    D(   68) --> V(    1) amplitude = -0.2210 alpha
    D(   71) --> V(    4) amplitude = -0.2761 alpha
    S(    1) --> V(   10) amplitude =  0.1582 alpha
    S(    2) --> V(    9) amplitude = -0.1577 alpha
    D(   66) --> S(    2) amplitude =  0.3735 beta
    D(   67) --> S(    1) amplitude = -0.3732 beta
    D(   70) --> V(    1) amplitude =  0.5594 beta
    D(   71) --> V(    4) amplitude =  0.2405 beta

 Excited state  24: excitation energy (eV) =    5.9671
 Total energy for state 24:                  -844.84916368 au
    <S**2>     :  3.3840
    Trans. Mom.: -0.0001 X  -0.0455 Y   0.0002 Z
    Strength   :     0.0003030721
    D(   69) --> V(    3) amplitude = -0.1684 alpha
    D(   69) --> V(    4) amplitude = -0.2661 alpha
    D(   70) --> V(    2) amplitude =  0.2043 alpha
    D(   71) --> V(    2) amplitude = -0.2251 alpha
    S(    1) --> V(    9) amplitude = -0.1799 alpha
    S(    2) --> V(   10) amplitude =  0.1760 alpha
    D(   65) --> S(    2) amplitude =  0.2109 beta
    D(   66) --> S(    1) amplitude =  0.2560 beta
    D(   67) --> S(    2) amplitude = -0.2563 beta
    D(   68) --> V(    3) amplitude =  0.2021 beta
    D(   69) --> V(    1) amplitude =  0.2777 beta
    D(   69) --> V(    2) amplitude = -0.2181 beta
    D(   70) --> V(    3) amplitude =  0.4581 beta

 Excited state  25: excitation energy (eV) =    5.9673
 Total energy for state 25:                  -844.84915664 au
    <S**2>     :  3.3875
    Trans. Mom.: -0.0481 X   0.0001 Y  -0.0000 Z
    Strength   :     0.0003383502
    D(   69) --> V(    2) amplitude =  0.1677 alpha
    D(   70) --> V(    4) amplitude = -0.2644 alpha
    D(   71) --> V(    3) amplitude =  0.2752 alpha
    S(    1) --> V(   10) amplitude = -0.1759 alpha
    S(    2) --> V(    9) amplitude = -0.1725 alpha
    D(   65) --> S(    1) amplitude = -0.2109 beta
    D(   66) --> S(    2) amplitude = -0.2545 beta
    D(   67) --> S(    1) amplitude = -0.2562 beta
    D(   68) --> V(    1) amplitude = -0.2975 beta
    D(   68) --> V(    2) amplitude = -0.1884 beta
    D(   69) --> V(    3) amplitude = -0.2024 beta
    D(   70) --> V(    2) amplitude =  0.4586 beta

 Excited state  26: excitation energy (eV) =    6.0777
 Total energy for state 26:                  -844.84509765 au
    <S**2>     :  3.2837
    Trans. Mom.:  0.0136 X  -0.0001 Y   0.0000 Z
    Strength   :     0.0000275960
    D(   68) --> V(    1) amplitude =  0.3876 alpha
    D(   69) --> V(    2) amplitude =  0.3096 alpha
    D(   70) --> V(    3) amplitude = -0.3072 alpha
    D(   71) --> V(    4) amplitude =  0.2703 alpha
    S(    1) --> V(   10) amplitude = -0.3138 alpha
    S(    2) --> V(    9) amplitude =  0.3161 alpha
    D(   66) --> S(    2) amplitude =  0.2372 beta
    D(   67) --> S(    1) amplitude = -0.2393 beta
    D(   68) --> V(    2) amplitude = -0.2569 beta
    D(   69) --> V(    3) amplitude =  0.2590 beta

 Excited state  27: excitation energy (eV) =    6.0889
 Total energy for state 27:                  -844.84468799 au
    <S**2>     :  3.7819
    Trans. Mom.: -0.0001 X   1.0600 Y   0.0005 Z
    Strength   :     0.1676270119
    D(   70) --> V(    1) amplitude = -0.4047 alpha
    D(   71) --> V(    2) amplitude =  0.1663 alpha
    D(   69) --> V(    1) amplitude =  0.5102 beta
    D(   71) --> V(    2) amplitude =  0.6087 beta

 Excited state  28: excitation energy (eV) =    6.0913
 Total energy for state 28:                  -844.84459783 au
    <S**2>     :  3.7804
    Trans. Mom.: -1.0585 X  -0.0001 Y   0.0000 Z
    Strength   :     0.1672035511
    D(   69) --> V(    1) amplitude = -0.4089 alpha
    D(   71) --> V(    3) amplitude =  0.1746 alpha
    D(   68) --> V(    1) amplitude =  0.5055 beta
    D(   71) --> V(    3) amplitude =  0.6101 beta

 Excited state  29: excitation energy (eV) =    6.1833
 Total energy for state 29:                  -844.84121878 au
    <S**2>     :  3.2112
    Trans. Mom.: -0.0000 X  -0.0007 Y   0.0001 Z
    Strength   :     0.0000000834
    D(   67) --> V(    1) amplitude =  0.1967 alpha
    D(   68) --> V(    4) amplitude = -0.1598 alpha
    D(   69) --> V(    3) amplitude =  0.2999 alpha
    D(   70) --> V(    2) amplitude =  0.2974 alpha
    D(   65) --> V(    1) amplitude =  0.1668 beta
    D(   66) --> S(    1) amplitude =  0.3717 beta
    D(   67) --> S(    2) amplitude =  0.3711 beta
    D(   70) --> V(    4) amplitude = -0.2749 beta
    D(   71) --> V(    1) amplitude = -0.3506 beta
    D(   71) --> V(    8) amplitude = -0.1813 beta

 Excited state  30: excitation energy (eV) =    6.2573
 Total energy for state 30:                  -844.83849749 au
    <S**2>     :  3.0030
    Trans. Mom.: -0.0000 X   0.3224 Y   0.0001 Z
    Strength   :     0.0159370017
    D(   69) --> V(    4) amplitude = -0.2041 alpha
    D(   70) --> V(    1) amplitude = -0.4244 alpha
    D(   71) --> V(    2) amplitude =  0.5402 alpha
    D(   66) --> S(    1) amplitude = -0.1658 beta
    D(   67) --> S(    2) amplitude =  0.1655 beta
    D(   69) --> V(    1) amplitude = -0.2957 beta
    D(   70) --> V(    3) amplitude =  0.3918 beta

 Excited state  31: excitation energy (eV) =    6.2588
 Total energy for state 31:                  -844.83844124 au
    <S**2>     :  3.0028
    Trans. Mom.: -0.3224 X  -0.0000 Y   0.0000 Z
    Strength   :     0.0159371732
    D(   69) --> V(    1) amplitude = -0.4283 alpha
    D(   70) --> V(    3) amplitude = -0.1617 alpha
    D(   70) --> V(    4) amplitude =  0.2010 alpha
    D(   71) --> V(    3) amplitude =  0.5140 alpha
    D(   66) --> S(    2) amplitude = -0.1680 beta
    D(   67) --> S(    1) amplitude = -0.1705 beta
    D(   68) --> V(    1) amplitude = -0.2851 beta
    D(   70) --> V(    2) amplitude = -0.3914 beta

 Excited state  32: excitation energy (eV) =    6.2800
 Total energy for state 32:                  -844.83766433 au
    <S**2>     :  2.4439
    Trans. Mom.: -0.0000 X  -0.0006 Y   0.0000 Z
    Strength   :     0.0000000519
    S(    1) --> V(    5) amplitude =  0.7397 alpha
    S(    1) --> V(    7) amplitude =  0.3876 alpha
    S(    2) --> V(    6) amplitude =  0.3864 alpha
    D(   63) --> S(    2) amplitude =  0.1677 beta
    D(   64) --> S(    1) amplitude = -0.1691 beta

 Excited state  33: excitation energy (eV) =    6.2804
 Total energy for state 33:                  -844.83764777 au
    <S**2>     :  2.4440
    Trans. Mom.: -0.0008 X   0.0000 Y   0.0000 Z
    Strength   :     0.0000001110
    S(    1) --> V(    6) amplitude =  0.3866 alpha
    S(    2) --> V(    5) amplitude =  0.7390 alpha
    S(    2) --> V(    7) amplitude = -0.3880 alpha
    D(   63) --> S(    1) amplitude = -0.1669 beta
    D(   64) --> S(    2) amplitude = -0.1712 beta

 Excited state  34: excitation energy (eV) =    6.3137
 Total energy for state 34:                  -844.83642427 au
    <S**2>     :  2.5159
    Trans. Mom.: -0.0000 X  -0.0054 Y  -0.0001 Z
    Strength   :     0.0000045655
    D(   68) --> V(    4) amplitude =  0.2977 alpha
    D(   69) --> V(    3) amplitude =  0.1770 alpha
    D(   70) --> V(    2) amplitude =  0.1754 alpha
    D(   71) --> V(    1) amplitude =  0.5772 alpha
    D(   68) --> V(    3) amplitude =  0.3177 beta
    D(   69) --> V(    2) amplitude =  0.3195 beta
    D(   71) --> V(    1) amplitude = -0.4354 beta

 Excited state  35: excitation energy (eV) =    6.3191
 Total energy for state 35:                  -844.83622554 au
    <S**2>     :  2.4511
    Trans. Mom.:  0.0003 X   0.0000 Y  -0.0000 Z
    Strength   :     0.0000000178
    D(   60) --> S(    2) amplitude =  0.2091 beta
    D(   61) --> S(    1) amplitude = -0.2104 beta
    D(   63) --> S(    1) amplitude =  0.6413 beta
    D(   64) --> S(    2) amplitude = -0.6582 beta

 Excited state  36: excitation energy (eV) =    6.3229
 Total energy for state 36:                  -844.83608911 au
    <S**2>     :  3.1752
    Trans. Mom.:  0.0034 X  -0.0000 Y   0.0000 Z
    Strength   :     0.0000018409
    D(   71) --> V(    4) amplitude =  0.1621 alpha
    D(   68) --> S(    2) amplitude =  0.1527 beta
    D(   68) --> V(    2) amplitude =  0.2861 beta
    D(   69) --> S(    1) amplitude = -0.1523 beta
    D(   69) --> V(    3) amplitude = -0.2847 beta
    D(   70) --> V(    1) amplitude =  0.6923 beta
    D(   71) --> V(    4) amplitude = -0.4224 beta

 Excited state  37: excitation energy (eV) =    6.3635
 Total energy for state 37:                  -844.83459475 au
    <S**2>     :  2.8152
    Trans. Mom.: -0.0242 X  -0.0001 Y  -0.0000 Z
    Strength   :     0.0000915390
    D(   69) --> V(    1) amplitude =  0.2997 alpha
    D(   71) --> V(    3) amplitude = -0.1737 alpha
    D(   65) --> S(    1) amplitude =  0.4349 beta
    D(   66) --> S(    2) amplitude = -0.3407 beta
    D(   67) --> S(    1) amplitude = -0.3407 beta
    D(   70) --> V(    2) amplitude = -0.3599 beta
    D(   71) --> V(    3) amplitude =  0.2792 beta

 Excited state  38: excitation energy (eV) =    6.3637
 Total energy for state 38:                  -844.83458620 au
    <S**2>     :  2.8095
    Trans. Mom.: -0.0001 X   0.0271 Y  -0.0002 Z
    Strength   :     0.0001146166
    D(   70) --> V(    1) amplitude =  0.2900 alpha
    D(   71) --> V(    2) amplitude = -0.2010 alpha
    D(   65) --> S(    2) amplitude =  0.4292 beta
    D(   66) --> S(    1) amplitude = -0.3388 beta
    D(   67) --> S(    2) amplitude =  0.3410 beta
    D(   70) --> V(    3) amplitude =  0.3598 beta
    D(   71) --> V(    2) amplitude =  0.2751 beta

 Excited state  39: excitation energy (eV) =    6.3651
 Total energy for state 39:                  -844.83453785 au
    <S**2>     :  2.4490
    Trans. Mom.: -0.0018 X   0.0001 Y  -0.0000 Z
    Strength   :     0.0000005030
    S(    2) --> V(    5) amplitude = -0.2073 alpha
    D(   57) --> S(    1) amplitude = -0.1855 beta
    D(   62) --> S(    2) amplitude =  0.2620 beta
    D(   63) --> S(    1) amplitude = -0.6260 beta
    D(   64) --> S(    2) amplitude = -0.6065 beta

 Excited state  40: excitation energy (eV) =    6.3652
 Total energy for state 40:                  -844.83453280 au
    <S**2>     :  2.4558
    Trans. Mom.: -0.0000 X  -0.0041 Y   0.0001 Z
    Strength   :     0.0000026536
    S(    1) --> V(    5) amplitude = -0.2046 alpha
    D(   57) --> S(    2) amplitude = -0.1839 beta
    D(   62) --> S(    1) amplitude = -0.2593 beta
    D(   63) --> S(    2) amplitude =  0.6014 beta
    D(   64) --> S(    1) amplitude = -0.6202 beta

 Excited state  41: excitation energy (eV) =    6.4428
 Total energy for state 41:                  -844.83168190 au
    <S**2>     :  2.4481
    Trans. Mom.: -0.0000 X   0.0004 Y   0.0095 Z
    Strength   :     0.0000143830
    D(   60) --> S(    1) amplitude = -0.2494 beta
    D(   61) --> S(    2) amplitude = -0.2500 beta
    D(   63) --> S(    2) amplitude = -0.6422 beta
    D(   64) --> S(    1) amplitude = -0.6239 beta

 Excited state  42: excitation energy (eV) =    6.4897
 Total energy for state 42:                  -844.82995828 au
    <S**2>     :  3.1518
    Trans. Mom.: -0.0013 X   0.0000 Y   0.0000 Z
    Strength   :     0.0000002827
    D(   68) --> V(    1) amplitude =  0.4508 alpha
    D(   69) --> V(    2) amplitude =  0.3050 alpha
    D(   70) --> V(    3) amplitude = -0.3022 alpha
    D(   71) --> V(    4) amplitude = -0.6298 alpha
    D(   68) --> V(    2) amplitude =  0.1827 beta
    D(   69) --> V(    3) amplitude = -0.1826 beta

 Excited state  43: excitation energy (eV) =    6.5715
 Total energy for state 43:                  -844.82695227 au
    <S**2>     :  2.4569
    Trans. Mom.: -0.0008 X  -0.0000 Y   0.0000 Z
    Strength   :     0.0000000947
    D(   68) --> V(    5) amplitude =  0.1962 alpha
    S(    1) --> V(    6) amplitude =  0.6478 alpha
    S(    1) --> V(   12) amplitude = -0.1884 alpha
    S(    2) --> V(    7) amplitude =  0.6470 alpha
    S(    2) --> V(   11) amplitude = -0.1883 alpha

 Excited state  44: excitation energy (eV) =    6.5783
 Total energy for state 44:                  -844.82670040 au
    <S**2>     :  3.1764
    Trans. Mom.: -0.0004 X  -0.0000 Y   0.0000 Z
    Strength   :     0.0000000295
    D(   68) --> V(    1) amplitude =  0.5553 alpha
    D(   69) --> V(    2) amplitude = -0.2445 alpha
    D(   70) --> V(    3) amplitude =  0.2409 alpha
    S(    1) --> V(   10) amplitude =  0.1905 alpha
    S(    2) --> V(    9) amplitude = -0.1906 alpha
    D(   66) --> S(    2) amplitude =  0.2661 beta
    D(   67) --> S(    1) amplitude = -0.2641 beta
    D(   71) --> V(    4) amplitude = -0.4915 beta

 Excited state  45: excitation energy (eV) =    6.6055
 Total energy for state 45:                  -844.82570278 au
    <S**2>     :  3.5630
    Trans. Mom.:  0.0000 X   0.0016 Y   0.0002 Z
    Strength   :     0.0000004092
    D(   68) --> V(    4) amplitude =  0.4041 alpha
    D(   71) --> V(    1) amplitude = -0.2768 alpha
    D(   66) --> S(    1) amplitude =  0.3931 beta
    D(   66) --> V(    3) amplitude =  0.1507 beta
    D(   67) --> S(    2) amplitude =  0.3928 beta
    D(   67) --> V(    2) amplitude =  0.1515 beta
    D(   70) --> V(    4) amplitude =  0.4976 beta

 Excited state  46: excitation energy (eV) =    6.6400
 Total energy for state 46:                  -844.82443567 au
    <S**2>     :  3.5261
    Trans. Mom.: -0.0065 X  -0.0000 Y  -0.0000 Z
    Strength   :     0.0000069639
    D(   68) --> V(    2) amplitude = -0.2145 alpha
    D(   70) --> V(    4) amplitude =  0.6012 alpha
    D(   71) --> V(    3) amplitude = -0.1610 alpha
    S(    2) --> V(    8) amplitude = -0.3733 alpha
    D(   65) --> S(    1) amplitude = -0.2010 beta
    D(   66) --> S(    2) amplitude = -0.1573 beta
    D(   67) --> S(    1) amplitude = -0.1581 beta
    D(   69) --> V(    4) amplitude =  0.3480 beta
    D(   70) --> V(    2) amplitude =  0.1993 beta

 Excited state  47: excitation energy (eV) =    6.6408
 Total energy for state 47:                  -844.82440504 au
    <S**2>     :  3.5255
    Trans. Mom.: -0.0000 X   0.0062 Y  -0.0002 Z
    Strength   :     0.0000062973
    D(   68) --> V(    3) amplitude =  0.2140 alpha
    D(   69) --> V(    4) amplitude = -0.6076 alpha
    S(    1) --> V(    8) amplitude = -0.3737 alpha
    D(   65) --> S(    2) amplitude = -0.2036 beta
    D(   66) --> S(    1) amplitude = -0.1590 beta
    D(   67) --> S(    2) amplitude =  0.1565 beta
    D(   68) --> V(    4) amplitude = -0.3484 beta
    D(   70) --> V(    3) amplitude = -0.1990 beta

 Excited state  48: excitation energy (eV) =    6.6985
 Total energy for state 48:                  -844.82228258 au
    <S**2>     :  2.4636
    Trans. Mom.:  0.0000 X  -0.0003 Y   0.0053 Z
    Strength   :     0.0000046436
    D(   71) --> V(    5) amplitude = -0.2012 alpha
    S(    1) --> V(    7) amplitude = -0.4320 alpha
    S(    1) --> V(   11) amplitude = -0.5072 alpha
    S(    2) --> V(    6) amplitude =  0.4339 alpha
    S(    2) --> V(   12) amplitude =  0.5068 alpha

 Excited state  49: excitation energy (eV) =    6.7512
 Total energy for state 49:                  -844.82034695 au
    <S**2>     :  2.8812
    Trans. Mom.:  0.0084 X   0.0000 Y  -0.0000 Z
    Strength   :     0.0000117667
    D(   68) --> V(    2) amplitude = -0.1728 alpha
    D(   69) --> V(    2) amplitude =  0.1773 alpha
    D(   70) --> V(    4) amplitude =  0.2157 alpha
    D(   71) --> V(    3) amplitude =  0.2438 alpha
    S(    2) --> V(    8) amplitude = -0.1799 alpha
    D(   65) --> S(    1) amplitude =  0.5625 beta
    D(   66) --> S(    2) amplitude =  0.2958 beta
    D(   67) --> S(    1) amplitude =  0.2928 beta
    D(   68) --> V(    1) amplitude = -0.2349 beta
    D(   68) --> V(    2) amplitude = -0.1601 beta
    D(   69) --> V(    3) amplitude = -0.1772 beta
    D(   70) --> V(    2) amplitude =  0.1773 beta

 Excited state  50: excitation energy (eV) =    6.7514
 Total energy for state 50:                  -844.82034208 au
    <S**2>     :  2.8833
    Trans. Mom.:  0.0000 X  -0.0069 Y  -0.0001 Z
    Strength   :     0.0000078748
    D(   68) --> V(    3) amplitude =  0.1733 alpha
    D(   69) --> V(    3) amplitude =  0.1763 alpha
    D(   69) --> V(    4) amplitude = -0.2200 alpha
    D(   70) --> V(    2) amplitude = -0.2071 alpha
    D(   71) --> V(    2) amplitude =  0.1886 alpha
    S(    1) --> V(    8) amplitude = -0.1812 alpha
    D(   65) --> S(    2) amplitude =  0.5634 beta
    D(   66) --> S(    1) amplitude =  0.2933 beta
    D(   67) --> S(    2) amplitude = -0.2912 beta
    D(   68) --> V(    3) amplitude = -0.1754 beta
    D(   69) --> V(    1) amplitude = -0.2157 beta
    D(   69) --> V(    2) amplitude =  0.1876 beta
    D(   70) --> V(    3) amplitude = -0.1782 beta
 
 ---------------------------------------------------
  SETman timing summary (seconds)
  CPU time              3618.78s
  System time              0.00s
  Wall time             3700.99s



            *********SPIN-ORBIT COUPLING JOB USING WIGNER–ECKART THEOREM BEGINS HERE*********

 Calculating one electron integrals:  Completed calculation of one electron integrals!
 Calculating MF integrals:  Completed calculation of MF integrals!
 Calculating S^2 values of the spin-states: S^2 values computed!
 Computing transition densities and evaluating SOCME with Libwe: 

**************************************************
 State A: Root 0
 State B: Root 1


 Analysing Sz ans S^2 of the pair of states...
 Ket state:  Computed S^2 = 2.3823584591 will be treated as 2.0000000000 Sz = 1.0000000000
 Bra state:  Computed S^2 = 2.3585904077 will be treated as 2.0000000000 Sz = 1.0000000000
 Clebsh-Gordan coefficient: <1.000,1.000;1.000,0.000|1.000,1.000> = 0.707

_______________________________
 One-electron SO (cm-1)
 Reduced matrix elements:
 <S|| Hso(L-) ||S'> = (0.002270,0.000077)
 <S|| Hso(L0) ||S'> = (0.000000,-0.019098)
 <S|| Hso(L+) ||S'> = (0.002270,-0.000077)

 SOCC = 0.019366


 Actual matrix elements:
       |Sz=-1.00>           |Sz=0.00>           |Sz=1.00>
 <Sz=-1.00|(-0.000000,0.013504)(0.001605,-0.000054)(0.000000,-0.000000)
 <Sz=0.00|(-0.001605,-0.000054)(-0.000000,-0.000000)(0.001605,-0.000054)
 <Sz=1.00|(0.000000,-0.000000)(-0.001605,-0.000054)(-0.000000,-0.013504)
_______________________________
 Mean-field SO (cm-1)
 Reduced matrix elements:
 <S|| Hso(L-) ||S'> = (0.002350,0.000066)
 <S|| Hso(L0) ||S'> = (0.000000,0.000356)
 <S|| Hso(L+) ||S'> = (0.002347,-0.000066)

 Singlet part of <S|| Hso(L0) ||S'> = (-0.000000,-0.000087) (excluded from all matrix elements)
 L-/L+ Averaged reduced matrix elements:
 <S|| Hso(L-) ||S'> = (0.002349,0.000066)
 <S|| Hso(L+) ||S'> = (0.002349,-0.000066)

 SOCC = 0.003342


 Actual matrix elements:
       |Sz=-1.00>           |Sz=0.00>           |Sz=1.00>
 <Sz=-1.00|(-0.000000,-0.000252)(0.001661,-0.000047)(0.000000,0.000000)
 <Sz=0.00|(-0.001661,-0.000047)(-0.000000,0.000000)(0.001661,-0.000047)
 <Sz=1.00|(0.000000,0.000000)(-0.001661,-0.000047)(-0.000000,0.000252)
_______________________________

**************************************************

**************************************************
 State A: Root 0
 State B: Root 2


 Analysing Sz ans S^2 of the pair of states...
 Ket state:  Computed S^2 = 2.382358 will be treated as 2.000000 Sz = 1.000000
 Bra state:  Computed S^2 = 2.358864 will be treated as 2.000000 Sz = 1.000000
 Clebsh-Gordan coefficient: <1.000,1.000;1.000,0.000|1.000,1.000> = 0.707

_______________________________
 One-electron SO (cm-1)
 Reduced matrix elements:
 <S|| Hso(L-) ||S'> = (0.000080,-0.004091)
 <S|| Hso(L0) ||S'> = (0.000000,-0.000028)
 <S|| Hso(L+) ||S'> = (0.000080,0.004091)

 SOCC = 0.005787


 Actual matrix elements:
       |Sz=-1.00>           |Sz=0.00>           |Sz=1.00>
 <Sz=-1.00|(-0.000000,0.000020)(0.000057,0.002893)(0.000000,0.000000)
 <Sz=0.00|(-0.000057,0.002893)(-0.000000,-0.000000)(0.000057,0.002893)
 <Sz=1.00|(0.000000,-0.000000)(-0.000057,0.002893)(-0.000000,-0.000020)
_______________________________
 Mean-field SO (cm-1)
 Reduced matrix elements:
 <S|| Hso(L-) ||S'> = (0.000069,-0.002994)
 <S|| Hso(L0) ||S'> = (0.000000,0.000001)
 <S|| Hso(L+) ||S'> = (0.000069,0.002994)

 Singlet part of <S|| Hso(L0) ||S'> = (-0.000000,-0.000000) (excluded from all matrix elements)
 L-/L+ Averaged reduced matrix elements:
 <S|| Hso(L-) ||S'> = (0.000069,-0.002994)
 <S|| Hso(L+) ||S'> = (0.000069,0.002994)

 SOCC = 0.004236


 Actual matrix elements:
       |Sz=-1.00>           |Sz=0.00>           |Sz=1.00>
 <Sz=-1.00|(-0.000000,-0.000001)(0.000048,0.002117)(0.000000,0.000000)
 <Sz=0.00|(-0.000048,0.002117)(-0.000000,-0.000000)(0.000048,0.002117)
 <Sz=1.00|(0.000000,-0.000000)(-0.000048,0.002117)(-0.000000,0.000001)
_______________________________

**************************************************

**************************************************
 State A: Root 0
 State B: Root 3


 Analysing Sz ans S^2 of the pair of states...
 Ket state:  Computed S^2 = 2.382358 will be treated as 2.000000 Sz = 1.000000
 Bra state:  Computed S^2 = 2.378087 will be treated as 2.000000 Sz = 1.000000
 Clebsh-Gordan coefficient: <1.000,1.000;1.000,0.000|1.000,1.000> = 0.707

_______________________________
 One-electron SO (cm-1)
 Reduced matrix elements:
 <S|| Hso(L-) ||S'> = (-0.000094,0.005912)
 <S|| Hso(L0) ||S'> = (0.000000,0.000067)
 <S|| Hso(L+) ||S'> = (-0.000094,-0.005912)

 SOCC = 0.008362


 Actual matrix elements:
       |Sz=-1.00>           |Sz=0.00>           |Sz=1.00>
 <Sz=-1.00|(0.000000,-0.000047)(-0.000066,-0.004180)(-0.000000,-0.000000)
 <Sz=0.00|(0.000066,-0.004180)(0.000000,0.000000)(-0.000066,-0.004180)
 <Sz=1.00|(-0.000000,0.000000)(0.000066,-0.004180)(0.000000,0.000047)
_______________________________
 Mean-field SO (cm-1)
 Reduced matrix elements:
 <S|| Hso(L-) ||S'> = (-0.000067,0.003922)
 <S|| Hso(L0) ||S'> = (0.000000,-0.000002)
 <S|| Hso(L+) ||S'> = (-0.000067,-0.003923)

 Singlet part of <S|| Hso(L0) ||S'> = (0.000000,0.000001) (excluded from all matrix elements)
 L-/L+ Averaged reduced matrix elements:
 <S|| Hso(L-) ||S'> = (-0.000067,0.003923)
 <S|| Hso(L+) ||S'> = (-0.000067,-0.003923)

 SOCC = 0.005548


 Actual matrix elements:
       |Sz=-1.00>           |Sz=0.00>           |Sz=1.00>
 <Sz=-1.00|(0.000000,0.000001)(-0.000047,-0.002774)(-0.000000,-0.000000)
 <Sz=0.00|(0.000047,-0.002774)(0.000000,0.000000)(-0.000047,-0.002774)
 <Sz=1.00|(-0.000000,0.000000)(0.000047,-0.002774)(0.000000,-0.000001)
_______________________________

**************************************************

**************************************************
 State A: Root 0
 State B: Root 4


 Analysing Sz ans S^2 of the pair of states...
 Ket state:  Computed S^2 = 2.382358 will be treated as 2.000000 Sz = 1.000000
 Bra state:  Computed S^2 = 2.378535 will be treated as 2.000000 Sz = 1.000000
 Clebsh-Gordan coefficient: <1.000,1.000;1.000,0.000|1.000,1.000> = 0.707

_______________________________
 One-electron SO (cm-1)
 Reduced matrix elements:
 <S|| Hso(L-) ||S'> = (0.001306,0.000101)
 <S|| Hso(L0) ||S'> = (0.000000,0.005335)
 <S|| Hso(L+) ||S'> = (0.001306,-0.000101)

 SOCC = 0.005648


 Actual matrix elements:
       |Sz=-1.00>           |Sz=0.00>           |Sz=1.00>
 <Sz=-1.00|(-0.000000,-0.003773)(0.000924,-0.000071)(0.000000,0.000000)
 <Sz=0.00|(-0.000924,-0.000071)(-0.000000,0.000000)(0.000924,-0.000071)
 <Sz=1.00|(0.000000,0.000000)(-0.000924,-0.000071)(-0.000000,0.003773)
_______________________________
 Mean-field SO (cm-1)
 Reduced matrix elements:
 <S|| Hso(L-) ||S'> = (0.001194,0.000072)
 <S|| Hso(L0) ||S'> = (0.000000,-0.000084)
 <S|| Hso(L+) ||S'> = (0.001196,-0.000072)

 Singlet part of <S|| Hso(L0) ||S'> = (-0.000000,-0.000036) (excluded from all matrix elements)
 L-/L+ Averaged reduced matrix elements:
 <S|| Hso(L-) ||S'> = (0.001195,0.000072)
 <S|| Hso(L+) ||S'> = (0.001195,-0.000072)

 SOCC = 0.001695


 Actual matrix elements:
       |Sz=-1.00>           |Sz=0.00>           |Sz=1.00>
 <Sz=-1.00|(-0.000000,0.000059)(0.000845,-0.000051)(0.000000,-0.000000)
 <Sz=0.00|(-0.000845,-0.000051)(-0.000000,0.000000)(0.000845,-0.000051)
 <Sz=1.00|(0.000000,-0.000000)(-0.000845,-0.000051)(-0.000000,-0.000059)
_______________________________

**************************************************

**************************************************
 State A: Root 0
 State B: Root 5


 Analysing Sz ans S^2 of the pair of states...
 Ket state:  Computed S^2 = 2.382358 will be treated as 2.000000 Sz = 1.000000
 Bra state:  Computed S^2 = 2.380918 will be treated as 2.000000 Sz = 1.000000
 Clebsh-Gordan coefficient: <1.000,1.000;1.000,0.000|1.000,1.000> = 0.707

_______________________________
 One-electron SO (cm-1)
 Reduced matrix elements:
 <S|| Hso(L-) ||S'> = (-0.003953,0.000095)
 <S|| Hso(L0) ||S'> = (0.000000,5.700899)
 <S|| Hso(L+) ||S'> = (-0.003953,-0.000095)

 SOCC = 5.700901


 Actual matrix elements:
       |Sz=-1.00>           |Sz=0.00>           |Sz=1.00>
 <Sz=-1.00|(0.000000,-4.031144)(-0.002795,-0.000067)(-0.000000,0.000000)
 <Sz=0.00|(0.002795,-0.000067)(0.000000,0.000000)(-0.002795,-0.000067)
 <Sz=1.00|(-0.000000,0.000000)(0.002795,-0.000067)(0.000000,4.031144)
_______________________________
 Mean-field SO (cm-1)
 Reduced matrix elements:
 <S|| Hso(L-) ||S'> = (-0.001497,0.000036)
 <S|| Hso(L0) ||S'> = (0.000000,-0.142802)
 <S|| Hso(L+) ||S'> = (-0.001492,-0.000036)

 Singlet part of <S|| Hso(L0) ||S'> = (0.000000,0.038773) (excluded from all matrix elements)
 L-/L+ Averaged reduced matrix elements:
 <S|| Hso(L-) ||S'> = (-0.001494,0.000036)
 <S|| Hso(L+) ||S'> = (-0.001494,-0.000036)

 SOCC = 0.142817


 Actual matrix elements:
       |Sz=-1.00>           |Sz=0.00>           |Sz=1.00>
 <Sz=-1.00|(0.000000,0.100976)(-0.001057,-0.000026)(-0.000000,-0.000000)
 <Sz=0.00|(0.001057,-0.000026)(0.000000,-0.000000)(-0.001057,-0.000026)
 <Sz=1.00|(-0.000000,-0.000000)(0.001057,-0.000026)(0.000000,-0.100976)
_______________________________

**************************************************

**************************************************
 State A: Root 0
 State B: Root 6


 Analysing Sz ans S^2 of the pair of states...
 Ket state:  Computed S^2 = 2.382358 will be treated as 2.000000 Sz = 1.000000
WARNING! The deviation of S^2 from the correct value is large, indicating a significant spin contamination. The results may be unreliable
 Bra state:  Computed S^2 = 2.418588 will be treated as 2.000000 Sz = 1.000000
 Clebsh-Gordan coefficient: <1.000,1.000;1.000,0.000|1.000,1.000> = 0.707

_______________________________
 One-electron SO (cm-1)
 Reduced matrix elements:
 <S|| Hso(L-) ||S'> = (0.006533,-0.000161)
 <S|| Hso(L0) ||S'> = (0.000000,0.147861)
 <S|| Hso(L+) ||S'> = (0.006533,0.000161)

 SOCC = 0.148149


 Actual matrix elements:
       |Sz=-1.00>           |Sz=0.00>           |Sz=1.00>
 <Sz=-1.00|(-0.000000,-0.104553)(0.004620,0.000114)(0.000000,0.000000)
 <Sz=0.00|(-0.004620,0.000114)(-0.000000,0.000000)(0.004620,0.000114)
 <Sz=1.00|(0.000000,0.000000)(-0.004620,0.000114)(-0.000000,0.104553)
_______________________________
 Mean-field SO (cm-1)
 Reduced matrix elements:
 <S|| Hso(L-) ||S'> = (0.003818,-0.000094)
 <S|| Hso(L0) ||S'> = (0.000000,0.208898)
 <S|| Hso(L+) ||S'> = (0.003814,0.000094)

 Singlet part of <S|| Hso(L0) ||S'> = (0.000000,0.009951) (excluded from all matrix elements)
 L-/L+ Averaged reduced matrix elements:
 <S|| Hso(L-) ||S'> = (0.003816,-0.000094)
 <S|| Hso(L+) ||S'> = (0.003816,0.000094)

 SOCC = 0.208967


 Actual matrix elements:
       |Sz=-1.00>           |Sz=0.00>           |Sz=1.00>
 <Sz=-1.00|(-0.000000,-0.147713)(0.002698,0.000067)(0.000000,0.000000)
 <Sz=0.00|(-0.002698,0.000067)(-0.000000,0.000000)(0.002698,0.000067)
 <Sz=1.00|(0.000000,0.000000)(-0.002698,0.000067)(-0.000000,0.147713)
_______________________________

**************************************************

**************************************************
 State A: Root 0
 State B: Root 7


 Analysing Sz ans S^2 of the pair of states...
 Ket state:  Computed S^2 = 2.382358 will be treated as 2.000000 Sz = 1.000000
WARNING! The deviation of S^2 from the correct value is large, indicating a significant spin contamination. The results may be unreliable
 Bra state:  Computed S^2 = 2.409095 will be treated as 2.000000 Sz = 1.000000
 Clebsh-Gordan coefficient: <1.000,1.000;1.000,0.000|1.000,1.000> = 0.707

_______________________________
 One-electron SO (cm-1)
 Reduced matrix elements:
 <S|| Hso(L-) ||S'> = (0.000683,0.000012)
 <S|| Hso(L0) ||S'> = (0.000000,0.002026)
 <S|| Hso(L+) ||S'> = (0.000683,-0.000012)

 SOCC = 0.002245


 Actual matrix elements:
       |Sz=-1.00>           |Sz=0.00>           |Sz=1.00>
 <Sz=-1.00|(-0.000000,-0.001433)(0.000483,-0.000008)(0.000000,0.000000)
 <Sz=0.00|(-0.000483,-0.000008)(-0.000000,0.000000)(0.000483,-0.000008)
 <Sz=1.00|(0.000000,0.000000)(-0.000483,-0.000008)(-0.000000,0.001433)
_______________________________
 Mean-field SO (cm-1)
 Reduced matrix elements:
 <S|| Hso(L-) ||S'> = (0.000248,0.000003)
 <S|| Hso(L0) ||S'> = (0.000000,-0.001262)
 <S|| Hso(L+) ||S'> = (0.000249,-0.000003)

 Singlet part of <S|| Hso(L0) ||S'> = (0.000000,0.000062) (excluded from all matrix elements)
 L-/L+ Averaged reduced matrix elements:
 <S|| Hso(L-) ||S'> = (0.000249,0.000003)
 <S|| Hso(L+) ||S'> = (0.000249,-0.000003)

 SOCC = 0.001310


 Actual matrix elements:
       |Sz=-1.00>           |Sz=0.00>           |Sz=1.00>
 <Sz=-1.00|(-0.000000,0.000892)(0.000176,-0.000002)(0.000000,-0.000000)
 <Sz=0.00|(-0.000176,-0.000002)(-0.000000,-0.000000)(0.000176,-0.000002)
 <Sz=1.00|(0.000000,-0.000000)(-0.000176,-0.000002)(-0.000000,-0.000892)
_______________________________

**************************************************

**************************************************
 State A: Root 0
 State B: Root 8


 Analysing Sz ans S^2 of the pair of states...
 Ket state:  Computed S^2 = 2.382358 will be treated as 2.000000 Sz = 1.000000
WARNING! The deviation of S^2 from the correct value is large, indicating a significant spin contamination. The results may be unreliable
 Bra state:  Computed S^2 = 2.409263 will be treated as 2.000000 Sz = 1.000000
 Clebsh-Gordan coefficient: <1.000,1.000;1.000,0.000|1.000,1.000> = 0.707

_______________________________
 One-electron SO (cm-1)
 Reduced matrix elements:
 <S|| Hso(L-) ||S'> = (0.000010,-0.000254)
 <S|| Hso(L0) ||S'> = (0.000000,0.000005)
 <S|| Hso(L+) ||S'> = (0.000010,0.000254)

 SOCC = 0.000359


 Actual matrix elements:
       |Sz=-1.00>           |Sz=0.00>           |Sz=1.00>
 <Sz=-1.00|(-0.000000,-0.000003)(0.000007,0.000180)(0.000000,0.000000)
 <Sz=0.00|(-0.000007,0.000180)(-0.000000,-0.000000)(0.000007,0.000180)
 <Sz=1.00|(0.000000,-0.000000)(-0.000007,0.000180)(-0.000000,0.000003)
_______________________________
 Mean-field SO (cm-1)
 Reduced matrix elements:
 <S|| Hso(L-) ||S'> = (0.000002,0.000011)
 <S|| Hso(L0) ||S'> = (0.000000,-0.000004)
 <S|| Hso(L+) ||S'> = (0.000002,-0.000009)

 Singlet part of <S|| Hso(L0) ||S'> = (0.000000,0.000000) (excluded from all matrix elements)
 L-/L+ Averaged reduced matrix elements:
 <S|| Hso(L-) ||S'> = (0.000002,0.000010)
 <S|| Hso(L+) ||S'> = (0.000002,-0.000010)

 SOCC = 0.000015


 Actual matrix elements:
       |Sz=-1.00>           |Sz=0.00>           |Sz=1.00>
 <Sz=-1.00|(-0.000000,0.000003)(0.000002,-0.000007)(0.000000,-0.000000)
 <Sz=0.00|(-0.000002,-0.000007)(-0.000000,0.000000)(0.000002,-0.000007)
 <Sz=1.00|(0.000000,0.000000)(-0.000002,-0.000007)(-0.000000,-0.000003)
_______________________________

**************************************************

**************************************************
 State A: Root 0
 State B: Root 9


 Analysing Sz ans S^2 of the pair of states...
 Ket state:  Computed S^2 = 2.382358 will be treated as 2.000000 Sz = 1.000000
WARNING! The deviation of S^2 from the correct value is large, indicating a significant spin contamination. The results may be unreliable
 Bra state:  Computed S^2 = 2.789037 will be treated as 2.000000 Sz = 1.000000
 Clebsh-Gordan coefficient: <1.000,1.000;1.000,0.000|1.000,1.000> = 0.707

_______________________________
 One-electron SO (cm-1)
 Reduced matrix elements:
 <S|| Hso(L-) ||S'> = (-0.000090,-0.003869)
 <S|| Hso(L0) ||S'> = (0.000000,0.000005)
 <S|| Hso(L+) ||S'> = (-0.000090,0.003869)

 SOCC = 0.005473


 Actual matrix elements:
       |Sz=-1.00>           |Sz=0.00>           |Sz=1.00>
 <Sz=-1.00|(0.000000,-0.000004)(-0.000064,0.002736)(-0.000000,0.000000)
 <Sz=0.00|(0.000064,0.002736)(0.000000,-0.000000)(-0.000064,0.002736)
 <Sz=1.00|(-0.000000,-0.000000)(0.000064,0.002736)(0.000000,0.000004)
_______________________________
 Mean-field SO (cm-1)
 Reduced matrix elements:
 <S|| Hso(L-) ||S'> = (-0.000055,-0.002326)
 <S|| Hso(L0) ||S'> = (0.000000,0.000000)
 <S|| Hso(L+) ||S'> = (-0.000055,0.002319)

 Singlet part of <S|| Hso(L0) ||S'> = (0.000000,0.000000) (excluded from all matrix elements)
 L-/L+ Averaged reduced matrix elements:
 <S|| Hso(L-) ||S'> = (-0.000055,-0.002323)
 <S|| Hso(L+) ||S'> = (-0.000055,0.002323)

 SOCC = 0.003286


 Actual matrix elements:
       |Sz=-1.00>           |Sz=0.00>           |Sz=1.00>
 <Sz=-1.00|(0.000000,-0.000000)(-0.000039,0.001642)(-0.000000,0.000000)
 <Sz=0.00|(0.000039,0.001642)(0.000000,-0.000000)(-0.000039,0.001642)
 <Sz=1.00|(-0.000000,-0.000000)(0.000039,0.001642)(0.000000,0.000000)
_______________________________

**************************************************

**************************************************
 State A: Root 0
 State B: Root 10


 Analysing Sz ans S^2 of the pair of states...
 Ket state:  Computed S^2 = 2.382358 will be treated as 2.000000 Sz = 1.000000
WARNING! The deviation of S^2 from the correct value is large, indicating a significant spin contamination. The results may be unreliable
 Bra state:  Computed S^2 = 2.429613 will be treated as 2.000000 Sz = 1.000000
 Clebsh-Gordan coefficient: <1.000,1.000;1.000,0.000|1.000,1.000> = 0.707

_______________________________
 One-electron SO (cm-1)
 Reduced matrix elements:
 <S|| Hso(L-) ||S'> = (0.001528,-0.000012)
 <S|| Hso(L0) ||S'> = (0.000000,0.002347)
 <S|| Hso(L+) ||S'> = (0.001528,0.000012)

 SOCC = 0.003190


 Actual matrix elements:
       |Sz=-1.00>           |Sz=0.00>           |Sz=1.00>
 <Sz=-1.00|(-0.000000,-0.001660)(0.001080,0.000009)(0.000000,0.000000)
 <Sz=0.00|(-0.001080,0.000009)(-0.000000,0.000000)(0.001080,0.000009)
 <Sz=1.00|(0.000000,0.000000)(-0.001080,0.000009)(-0.000000,0.001660)
_______________________________
 Mean-field SO (cm-1)
 Reduced matrix elements:
 <S|| Hso(L-) ||S'> = (0.001924,0.000008)
 <S|| Hso(L0) ||S'> = (0.000000,-0.000356)
 <S|| Hso(L+) ||S'> = (0.001926,-0.000008)

 Singlet part of <S|| Hso(L0) ||S'> = (0.000000,0.000009) (excluded from all matrix elements)
 L-/L+ Averaged reduced matrix elements:
 <S|| Hso(L-) ||S'> = (0.001925,0.000008)
 <S|| Hso(L+) ||S'> = (0.001925,-0.000008)

 SOCC = 0.002745


 Actual matrix elements:
       |Sz=-1.00>           |Sz=0.00>           |Sz=1.00>
 <Sz=-1.00|(-0.000000,0.000252)(0.001361,-0.000006)(0.000000,-0.000000)
 <Sz=0.00|(-0.001361,-0.000006)(-0.000000,-0.000000)(0.001361,-0.000006)
 <Sz=1.00|(0.000000,-0.000000)(-0.001361,-0.000006)(-0.000000,-0.000252)
_______________________________

**************************************************

**************************************************
 State A: Root 0
 State B: Root 11


 Analysing Sz ans S^2 of the pair of states...
 Ket state:  Computed S^2 = 2.382358 will be treated as 2.000000 Sz = 1.000000
WARNING! The deviation of S^2 from the correct value is large, indicating a significant spin contamination. The results may be unreliable
 Bra state:  Computed S^2 = 2.429651 will be treated as 2.000000 Sz = 1.000000
 Clebsh-Gordan coefficient: <1.000,1.000;1.000,0.000|1.000,1.000> = 0.707

_______________________________
 One-electron SO (cm-1)
 Reduced matrix elements:
 <S|| Hso(L-) ||S'> = (-0.000025,0.003295)
 <S|| Hso(L0) ||S'> = (0.000000,0.000002)
 <S|| Hso(L+) ||S'> = (-0.000025,-0.003295)

 SOCC = 0.004659


 Actual matrix elements:
       |Sz=-1.00>           |Sz=0.00>           |Sz=1.00>
 <Sz=-1.00|(0.000000,-0.000001)(-0.000018,-0.002330)(-0.000000,-0.000000)
 <Sz=0.00|(0.000018,-0.002330)(0.000000,0.000000)(-0.000018,-0.002330)
 <Sz=1.00|(-0.000000,0.000000)(0.000018,-0.002330)(0.000000,0.000001)
_______________________________
 Mean-field SO (cm-1)
 Reduced matrix elements:
 <S|| Hso(L-) ||S'> = (0.000000,0.001678)
 <S|| Hso(L0) ||S'> = (0.000000,-0.000000)
 <S|| Hso(L+) ||S'> = (0.000000,-0.001681)

 Singlet part of <S|| Hso(L0) ||S'> = (-0.000000,-0.000000) (excluded from all matrix elements)
 L-/L+ Averaged reduced matrix elements:
 <S|| Hso(L-) ||S'> = (0.000000,0.001680)
 <S|| Hso(L+) ||S'> = (0.000000,-0.001680)

 SOCC = 0.002375


 Actual matrix elements:
       |Sz=-1.00>           |Sz=0.00>           |Sz=1.00>
 <Sz=-1.00|(-0.000000,0.000000)(0.000000,-0.001188)(0.000000,-0.000000)
 <Sz=0.00|(-0.000000,-0.001188)(-0.000000,0.000000)(0.000000,-0.001188)
 <Sz=1.00|(0.000000,0.000000)(-0.000000,-0.001188)(-0.000000,-0.000000)
_______________________________

**************************************************

**************************************************
 State A: Root 0
 State B: Root 12


 Analysing Sz ans S^2 of the pair of states...
 Ket state:  Computed S^2 = 2.382358 will be treated as 2.000000 Sz = 1.000000
WARNING! The deviation of S^2 from the correct value is large, indicating a significant spin contamination. The results may be unreliable
 Bra state:  Computed S^2 = 2.459105 will be treated as 2.000000 Sz = 1.000000
 Clebsh-Gordan coefficient: <1.000,1.000;1.000,0.000|1.000,1.000> = 0.707

_______________________________
 One-electron SO (cm-1)
 Reduced matrix elements:
 <S|| Hso(L-) ||S'> = (0.003356,0.000027)
 <S|| Hso(L0) ||S'> = (0.000000,-0.001079)
 <S|| Hso(L+) ||S'> = (0.003356,-0.000027)

 SOCC = 0.004867


 Actual matrix elements:
       |Sz=-1.00>           |Sz=0.00>           |Sz=1.00>
 <Sz=-1.00|(-0.000000,0.000763)(0.002373,-0.000019)(0.000000,-0.000000)
 <Sz=0.00|(-0.002373,-0.000019)(-0.000000,-0.000000)(0.002373,-0.000019)
 <Sz=1.00|(0.000000,-0.000000)(-0.002373,-0.000019)(-0.000000,-0.000763)
_______________________________
 Mean-field SO (cm-1)
 Reduced matrix elements:
 <S|| Hso(L-) ||S'> = (0.001770,0.000014)
 <S|| Hso(L0) ||S'> = (0.000000,-0.000249)
 <S|| Hso(L+) ||S'> = (0.001779,-0.000014)

 Singlet part of <S|| Hso(L0) ||S'> = (-0.000000,-0.000068) (excluded from all matrix elements)
 L-/L+ Averaged reduced matrix elements:
 <S|| Hso(L-) ||S'> = (0.001775,0.000014)
 <S|| Hso(L+) ||S'> = (0.001775,-0.000014)

 SOCC = 0.002522


 Actual matrix elements:
       |Sz=-1.00>           |Sz=0.00>           |Sz=1.00>
 <Sz=-1.00|(-0.000000,0.000176)(0.001255,-0.000010)(0.000000,-0.000000)
 <Sz=0.00|(-0.001255,-0.000010)(-0.000000,0.000000)(0.001255,-0.000010)
 <Sz=1.00|(0.000000,-0.000000)(-0.001255,-0.000010)(-0.000000,-0.000176)
_______________________________

**************************************************

**************************************************
 State A: Root 0
 State B: Root 13


 Analysing Sz ans S^2 of the pair of states...
 Ket state:  Computed S^2 = 2.382358 will be treated as 2.000000 Sz = 1.000000
WARNING! The deviation of S^2 from the correct value is large, indicating a significant spin contamination. The results may be unreliable
 Bra state:  Computed S^2 = 2.459434 will be treated as 2.000000 Sz = 1.000000
 Clebsh-Gordan coefficient: <1.000,1.000;1.000,0.000|1.000,1.000> = 0.707

_______________________________
 One-electron SO (cm-1)
 Reduced matrix elements:
 <S|| Hso(L-) ||S'> = (0.000022,-0.002854)
 <S|| Hso(L0) ||S'> = (0.000000,0.000018)
 <S|| Hso(L+) ||S'> = (0.000022,0.002854)

 SOCC = 0.004036


 Actual matrix elements:
       |Sz=-1.00>           |Sz=0.00>           |Sz=1.00>
 <Sz=-1.00|(-0.000000,-0.000013)(0.000016,0.002018)(0.000000,0.000000)
 <Sz=0.00|(-0.000016,0.002018)(-0.000000,-0.000000)(0.000016,0.002018)
 <Sz=1.00|(0.000000,-0.000000)(-0.000016,0.002018)(-0.000000,0.000013)
_______________________________
 Mean-field SO (cm-1)
 Reduced matrix elements:
 <S|| Hso(L-) ||S'> = (0.000015,-0.001697)
 <S|| Hso(L0) ||S'> = (0.000000,0.000004)
 <S|| Hso(L+) ||S'> = (0.000014,0.001690)

 Singlet part of <S|| Hso(L0) ||S'> = (0.000000,0.000001) (excluded from all matrix elements)
 L-/L+ Averaged reduced matrix elements:
 <S|| Hso(L-) ||S'> = (0.000015,-0.001693)
 <S|| Hso(L+) ||S'> = (0.000015,0.001693)

 SOCC = 0.002395


 Actual matrix elements:
       |Sz=-1.00>           |Sz=0.00>           |Sz=1.00>
 <Sz=-1.00|(-0.000000,-0.000003)(0.000010,0.001197)(0.000000,0.000000)
 <Sz=0.00|(-0.000010,0.001197)(-0.000000,-0.000000)(0.000010,0.001197)
 <Sz=1.00|(0.000000,-0.000000)(-0.000010,0.001197)(-0.000000,0.000003)
_______________________________

**************************************************

**************************************************
 State A: Root 0
 State B: Root 14


 Analysing Sz ans S^2 of the pair of states...
 Ket state:  Computed S^2 = 2.382358 will be treated as 2.000000 Sz = 1.000000
 Bra state:  Computed S^2 = 2.371147 will be treated as 2.000000 Sz = 1.000000
 Clebsh-Gordan coefficient: <1.000,1.000;1.000,0.000|1.000,1.000> = 0.707

_______________________________
 One-electron SO (cm-1)
 Reduced matrix elements:
 <S|| Hso(L-) ||S'> = (0.000029,-0.004477)
 <S|| Hso(L0) ||S'> = (0.000000,0.000001)
 <S|| Hso(L+) ||S'> = (0.000029,0.004477)

 SOCC = 0.006332


 Actual matrix elements:
       |Sz=-1.00>           |Sz=0.00>           |Sz=1.00>
 <Sz=-1.00|(-0.000000,-0.000001)(0.000020,0.003166)(0.000000,0.000000)
 <Sz=0.00|(-0.000020,0.003166)(-0.000000,-0.000000)(0.000020,0.003166)
 <Sz=1.00|(0.000000,-0.000000)(-0.000020,0.003166)(-0.000000,0.000001)
_______________________________
 Mean-field SO (cm-1)
 Reduced matrix elements:
 <S|| Hso(L-) ||S'> = (0.000017,-0.002831)
 <S|| Hso(L0) ||S'> = (0.000000,-0.000000)
 <S|| Hso(L+) ||S'> = (0.000016,0.002808)

 Singlet part of <S|| Hso(L0) ||S'> = (-0.000000,-0.000000) (excluded from all matrix elements)
 L-/L+ Averaged reduced matrix elements:
 <S|| Hso(L-) ||S'> = (0.000016,-0.002819)
 <S|| Hso(L+) ||S'> = (0.000016,0.002819)

 SOCC = 0.003987


 Actual matrix elements:
       |Sz=-1.00>           |Sz=0.00>           |Sz=1.00>
 <Sz=-1.00|(-0.000000,0.000000)(0.000012,0.001994)(0.000000,0.000000)
 <Sz=0.00|(-0.000012,0.001994)(-0.000000,-0.000000)(0.000012,0.001994)
 <Sz=1.00|(0.000000,-0.000000)(-0.000012,0.001994)(-0.000000,-0.000000)
_______________________________

**************************************************

**************************************************
 State A: Root 0
 State B: Root 15


 Analysing Sz ans S^2 of the pair of states...
 Ket state:  Computed S^2 = 2.382358 will be treated as 2.000000 Sz = 1.000000
 Bra state:  Computed S^2 = 2.371002 will be treated as 2.000000 Sz = 1.000000
 Clebsh-Gordan coefficient: <1.000,1.000;1.000,0.000|1.000,1.000> = 0.707

_______________________________
 One-electron SO (cm-1)
 Reduced matrix elements:
 <S|| Hso(L-) ||S'> = (0.002047,-0.000038)
 <S|| Hso(L0) ||S'> = (0.000000,0.000374)
 <S|| Hso(L+) ||S'> = (0.002047,0.000038)

 SOCC = 0.002919


 Actual matrix elements:
       |Sz=-1.00>           |Sz=0.00>           |Sz=1.00>
 <Sz=-1.00|(-0.000000,-0.000264)(0.001447,0.000027)(0.000000,0.000000)
 <Sz=0.00|(-0.001447,0.000027)(-0.000000,-0.000000)(0.001447,0.000027)
 <Sz=1.00|(0.000000,0.000000)(-0.001447,0.000027)(-0.000000,0.000264)
_______________________________
 Mean-field SO (cm-1)
 Reduced matrix elements:
 <S|| Hso(L-) ||S'> = (0.001385,-0.000022)
 <S|| Hso(L0) ||S'> = (0.000000,-0.000070)
 <S|| Hso(L+) ||S'> = (0.001392,0.000021)

 Singlet part of <S|| Hso(L0) ||S'> = (0.000000,0.000019) (excluded from all matrix elements)
 L-/L+ Averaged reduced matrix elements:
 <S|| Hso(L-) ||S'> = (0.001388,-0.000022)
 <S|| Hso(L+) ||S'> = (0.001388,0.000022)

 SOCC = 0.001965


 Actual matrix elements:
       |Sz=-1.00>           |Sz=0.00>           |Sz=1.00>
 <Sz=-1.00|(-0.000000,0.000049)(0.000982,0.000015)(0.000000,0.000000)
 <Sz=0.00|(-0.000982,0.000015)(-0.000000,-0.000000)(0.000982,0.000015)
 <Sz=1.00|(0.000000,-0.000000)(-0.000982,0.000015)(-0.000000,-0.000049)
_______________________________

**************************************************

**************************************************
 State A: Root 0
 State B: Root 16


 Analysing Sz ans S^2 of the pair of states...
 Ket state:  Computed S^2 = 2.382358 will be treated as 2.000000 Sz = 1.000000
WARNING! The deviation of S^2 from the correct value is large, indicating a significant spin contamination. The results may be unreliable
 Bra state:  Computed S^2 = 3.895384 will be treated as 6.000000 Sz = 1.000000
 Clebsh-Gordan coefficient: <1.000,1.000;1.000,0.000|2.000,1.000> = 0.707

_______________________________
 One-electron SO (cm-1)
 Reduced matrix elements:
 <S|| Hso(L-) ||S'> = (0.000108,0.004731)
 <S|| Hso(L0) ||S'> = (0.000000,-0.000001)
 <S|| Hso(L+) ||S'> = (0.000108,-0.004731)

 SOCC = 0.008639


 Actual matrix elements:
       |Sz=-1.00>           |Sz=0.00>           |Sz=1.00>
 <Sz=-2.00|(0.000108,-0.004731)(0.000000,0.000000)(0.000000,0.000000)
 <Sz=-1.00|(0.000000,-0.000000)(0.000077,-0.003345)(0.000000,-0.000000)
 <Sz=0.00|(0.000044,0.001931)(-0.000000,-0.000000)(0.000044,-0.001931)
 <Sz=1.00|(0.000000,0.000000)(0.000077,0.003345)(0.000000,-0.000000)
 <Sz=2.00|(0.000000,0.000000)(0.000000,0.000000)(0.000108,0.004731)
_______________________________
 Mean-field SO (cm-1)
 Reduced matrix elements:
 <S|| Hso(L-) ||S'> = (0.000064,0.002740)
 <S|| Hso(L0) ||S'> = (0.000000,0.000000)
 <S|| Hso(L+) ||S'> = (0.000064,-0.002746)

 Singlet part of <S|| Hso(L0) ||S'> = (-0.000000,-0.000000) (excluded from all matrix elements)
 L-/L+ Averaged reduced matrix elements:
 <S|| Hso(L-) ||S'> = (0.000064,0.002743)
 <S|| Hso(L+) ||S'> = (0.000064,-0.002743)

 SOCC = 0.005009


 Actual matrix elements:
       |Sz=-1.00>           |Sz=0.00>           |Sz=1.00>
 <Sz=-2.00|(0.000064,-0.002743)(0.000000,0.000000)(0.000000,0.000000)
 <Sz=-1.00|(0.000000,0.000000)(0.000045,-0.001939)(0.000000,-0.000000)
 <Sz=0.00|(0.000026,0.001120)(-0.000000,0.000000)(0.000026,-0.001120)
 <Sz=1.00|(0.000000,0.000000)(0.000045,0.001939)(0.000000,0.000000)
 <Sz=2.00|(0.000000,0.000000)(0.000000,0.000000)(0.000064,0.002743)
_______________________________

**************************************************

**************************************************
 State A: Root 0
 State B: Root 17


 Analysing Sz ans S^2 of the pair of states...
 Ket state:  Computed S^2 = 2.382358 will be treated as 2.000000 Sz = 1.000000
WARNING! The deviation of S^2 from the correct value is large, indicating a significant spin contamination. The results may be unreliable
 Bra state:  Computed S^2 = 3.478963 will be treated as 2.000000 Sz = 1.000000
 Clebsh-Gordan coefficient: <1.000,1.000;1.000,0.000|1.000,1.000> = 0.707

_______________________________
 One-electron SO (cm-1)
 Reduced matrix elements:
 <S|| Hso(L-) ||S'> = (0.000090,0.002731)
 <S|| Hso(L0) ||S'> = (0.000000,-0.000001)
 <S|| Hso(L+) ||S'> = (0.000090,-0.002731)

 SOCC = 0.003864


 Actual matrix elements:
       |Sz=-1.00>           |Sz=0.00>           |Sz=1.00>
 <Sz=-1.00|(-0.000000,0.000000)(0.000063,-0.001931)(0.000000,-0.000000)
 <Sz=0.00|(-0.000063,-0.001931)(-0.000000,0.000000)(0.000063,-0.001931)
 <Sz=1.00|(0.000000,0.000000)(-0.000063,-0.001931)(-0.000000,-0.000000)
_______________________________
 Mean-field SO (cm-1)
 Reduced matrix elements:
 <S|| Hso(L-) ||S'> = (0.000048,0.001493)
 <S|| Hso(L0) ||S'> = (0.000000,-0.000000)
 <S|| Hso(L+) ||S'> = (0.000048,-0.001482)

 Singlet part of <S|| Hso(L0) ||S'> = (-0.000000,-0.000000) (excluded from all matrix elements)
 L-/L+ Averaged reduced matrix elements:
 <S|| Hso(L-) ||S'> = (0.000048,0.001487)
 <S|| Hso(L+) ||S'> = (0.000048,-0.001487)

 SOCC = 0.002104


 Actual matrix elements:
       |Sz=-1.00>           |Sz=0.00>           |Sz=1.00>
 <Sz=-1.00|(-0.000000,0.000000)(0.000034,-0.001052)(0.000000,-0.000000)
 <Sz=0.00|(-0.000034,-0.001052)(-0.000000,0.000000)(0.000034,-0.001052)
 <Sz=1.00|(0.000000,0.000000)(-0.000034,-0.001052)(-0.000000,-0.000000)
_______________________________

**************************************************

**************************************************
 State A: Root 0
 State B: Root 18


 Analysing Sz ans S^2 of the pair of states...
 Ket state:  Computed S^2 = 2.382358 will be treated as 2.000000 Sz = 1.000000
WARNING! The deviation of S^2 from the correct value is large, indicating a significant spin contamination. The results may be unreliable
 Bra state:  Computed S^2 = 2.420317 will be treated as 2.000000 Sz = 1.000000
 Clebsh-Gordan coefficient: <1.000,1.000;1.000,0.000|1.000,1.000> = 0.707

_______________________________
 One-electron SO (cm-1)
 Reduced matrix elements:
 <S|| Hso(L-) ||S'> = (-0.000055,-0.001903)
 <S|| Hso(L0) ||S'> = (0.000000,-0.000001)
 <S|| Hso(L+) ||S'> = (-0.000055,0.001903)

 SOCC = 0.002692


 Actual matrix elements:
       |Sz=-1.00>           |Sz=0.00>           |Sz=1.00>
 <Sz=-1.00|(0.000000,0.000001)(-0.000039,0.001346)(-0.000000,0.000000)
 <Sz=0.00|(0.000039,0.001346)(0.000000,-0.000000)(-0.000039,0.001346)
 <Sz=1.00|(-0.000000,-0.000000)(0.000039,0.001346)(0.000000,-0.000001)
_______________________________
 Mean-field SO (cm-1)
 Reduced matrix elements:
 <S|| Hso(L-) ||S'> = (-0.000028,-0.000968)
 <S|| Hso(L0) ||S'> = (0.000000,-0.000000)
 <S|| Hso(L+) ||S'> = (-0.000028,0.000963)

 Singlet part of <S|| Hso(L0) ||S'> = (0.000000,0.000000) (excluded from all matrix elements)
 L-/L+ Averaged reduced matrix elements:
 <S|| Hso(L-) ||S'> = (-0.000028,-0.000965)
 <S|| Hso(L+) ||S'> = (-0.000028,0.000965)

 SOCC = 0.001366


 Actual matrix elements:
       |Sz=-1.00>           |Sz=0.00>           |Sz=1.00>
 <Sz=-1.00|(0.000000,0.000000)(-0.000020,0.000683)(-0.000000,0.000000)
 <Sz=0.00|(0.000020,0.000683)(0.000000,-0.000000)(-0.000020,0.000683)
 <Sz=1.00|(-0.000000,-0.000000)(0.000020,0.000683)(0.000000,-0.000000)
_______________________________

**************************************************

**************************************************
 State A: Root 0
 State B: Root 19


 Analysing Sz ans S^2 of the pair of states...
 Ket state:  Computed S^2 = 2.382358 will be treated as 2.000000 Sz = 1.000000
WARNING! The deviation of S^2 from the correct value is large, indicating a significant spin contamination. The results may be unreliable
 Bra state:  Computed S^2 = 3.686060 will be treated as 2.000000 Sz = 1.000000
 Clebsh-Gordan coefficient: <1.000,1.000;1.000,0.000|1.000,1.000> = 0.707

_______________________________
 One-electron SO (cm-1)
 Reduced matrix elements:
 <S|| Hso(L-) ||S'> = (0.004126,0.000046)
 <S|| Hso(L0) ||S'> = (0.000000,-0.001027)
 <S|| Hso(L+) ||S'> = (0.004126,-0.000046)

 SOCC = 0.005925


 Actual matrix elements:
       |Sz=-1.00>           |Sz=0.00>           |Sz=1.00>
 <Sz=-1.00|(-0.000000,0.000726)(0.002917,-0.000032)(0.000000,-0.000000)
 <Sz=0.00|(-0.002917,-0.000032)(-0.000000,-0.000000)(0.002917,-0.000032)
 <Sz=1.00|(0.000000,-0.000000)(-0.002917,-0.000032)(-0.000000,-0.000726)
_______________________________
 Mean-field SO (cm-1)
 Reduced matrix elements:
 <S|| Hso(L-) ||S'> = (0.000993,0.000002)
 <S|| Hso(L0) ||S'> = (0.000000,0.000107)
 <S|| Hso(L+) ||S'> = (0.000981,-0.000002)

 Singlet part of <S|| Hso(L0) ||S'> = (0.000000,0.000036) (excluded from all matrix elements)
 L-/L+ Averaged reduced matrix elements:
 <S|| Hso(L-) ||S'> = (0.000987,0.000002)
 <S|| Hso(L+) ||S'> = (0.000987,-0.000002)

 SOCC = 0.001400


 Actual matrix elements:
       |Sz=-1.00>           |Sz=0.00>           |Sz=1.00>
 <Sz=-1.00|(-0.000000,-0.000076)(0.000698,-0.000001)(0.000000,0.000000)
 <Sz=0.00|(-0.000698,-0.000001)(-0.000000,0.000000)(0.000698,-0.000001)
 <Sz=1.00|(0.000000,0.000000)(-0.000698,-0.000001)(-0.000000,0.000076)
_______________________________

**************************************************

**************************************************
 State A: Root 0
 State B: Root 20


 Analysing Sz ans S^2 of the pair of states...
[...]
   32   49  -0.000019  -0.009297   0.000065    0.009297346
   32   50   0.009600  -0.000018   0.000016    0.009599648
   33   34  -0.000009   0.023139  -0.000454     0.02314319
   33   35  -0.000134   0.000006   0.000003   0.0001338703
   33   36   0.003777   0.000002  -0.000013    0.003777359
   33   37  -0.010550   0.000042  -0.000643     0.01056937
   33   38  -0.000043  -0.010248   0.049252     0.05030723
   33   39  -0.000569  -0.000020   0.002280    0.002350383
   33   40  -0.000013   0.001587   0.336269      0.3362727
   33   41  -0.000002  -0.000105  -0.010866     0.01086655
   33   42  -0.018422  -0.000007   0.000005     0.01842151
   33   43   0.000431  -0.000008  -0.000001   0.0004308844
   33   44  -0.011770  -0.000005   0.000003     0.01177004
   33   45   0.000007  -0.016963   0.001265     0.01701003
   33   46  -0.002344   0.000006  -0.000020    0.002343873
   33   47  -0.000006  -0.002355   0.000955    0.002541709
   33   48   0.000009   0.000395  -0.000454   0.0006014895
   33   49  -0.009462   0.000018  -0.000020    0.009462509
   33   50  -0.000019  -0.009423   0.001861     0.00960479
   34   35  -0.000000   0.000182   0.003396     0.00340116
   34   36   0.000001  -0.000063   0.158141      0.1581408
   34   37  -0.000005  -0.000118  -0.000520    0.000533297
   34   38   0.000614  -0.000011   0.000008   0.0006144494
   34   39   0.000029   0.004734  -0.000949    0.004827993
   34   40   0.004666  -0.000029   0.000024    0.004666378
   34   41  -0.000052  -0.000000   0.000014    5.36991E-05
   34   42   0.000006  -0.000262  -0.355250      0.3552504
   34   43   0.000000   0.000035   0.001938     0.00193783
   34   44   0.000003  -0.000137  -0.285544      0.2855437
   34   45  -0.000034  -0.000001   0.000002   3.430014E-05
   34   46   0.000000   0.000005  -0.000250   0.0002500464
   34   47  -0.000015   0.000000  -0.000005    1.52559E-05
   34   48  -0.000000   0.000000  -0.000000   3.729774E-07
   34   49  -0.000004  -0.000195  -0.000947   0.0009665799
   34   50   0.000110  -0.000004  -0.000004   0.0001098379
   35   36   0.000064   0.000000   0.000005   6.446186E-05
   35   37   0.002163   0.000006  -0.000060    0.002163534
   35   38   0.000006  -0.002099  -0.008102    0.008369902
   35   39   0.000322  -0.000009  -0.000121   0.0003438706
   35   40   0.000009   0.000726  -0.015364     0.01538118
   35   41   0.000007  -0.000293  -1.736005       1.736005
   35   42   0.000209   0.000000  -0.000010   0.0002092982
   35   43  -0.000139  -0.000003   0.000003   0.0001393302
   35   44  -0.000049   0.000000   0.000007   4.925189E-05
   35   45   0.000001  -0.000261  -0.001618    0.001638832
   35   46   0.016238   0.000015  -0.000052     0.01623826
   35   47   0.000015  -0.016377  -0.002950     0.01664094
   35   48  -0.000006   0.000257   0.319527       0.319527
   35   49  -0.004392  -0.000002   0.000019    0.004392322
   35   50  -0.000001   0.004598   0.001558    0.004854973
   36   37  -0.000169   0.000002  -0.000016   0.0001694647
   36   38  -0.000002   0.000031   0.003049    0.003048841
   36   39  -0.000067   0.000001   0.000061   9.034463E-05
   36   40   0.000001   0.000099   0.001679    0.001681914
   36   41  -0.000000  -0.000099   0.036420     0.03642023
   36   42   0.000002  -0.000000  -0.000004    4.74238E-06
   36   43  -0.000003  -0.000000   0.000001   3.041307E-06
   36   44  -0.000025  -0.000001  -0.000004    2.56192E-05
   36   45   0.000003  -0.000134  -0.066145     0.06614542
   36   46  -0.000256  -0.000002   0.000001   0.0002556494
   36   47   0.000001   0.000395  -0.001932    0.001971671
   36   48  -0.000001  -0.000192  -0.006313    0.006315812
   36   49   0.000222  -0.000003  -0.000000   0.0002215423
   36   50   0.000003   0.000032  -0.000174    0.000177123
   37   38  -0.000005   0.000298  -1.055365       1.055365
   37   39   0.002877   0.000008  -0.001036    0.003058082
   37   40  -0.000007   0.002774   0.113473      0.1135071
   37   41  -0.000007   0.002995   0.008576    0.009083904
   37   42  -0.000572   0.000021   0.000005   0.0005723208
   37   43  -0.020265  -0.000050   0.000004     0.02026478
   37   44  -0.000115   0.000000   0.000010   0.0001157032
   37   45   0.000027   0.000785   0.002184    0.002320867
   37   46   0.000115   0.000008  -0.000688    0.000697931
   37   47  -0.000003   0.000314  -0.450188      0.4501881
   37   48  -0.000023   0.009936  -0.001878      0.0101119
   37   49  -0.000123  -0.000010   0.001564    0.001569325
   37   50   0.000001  -0.000342   0.754087      0.7540869
   38   39  -0.000005   0.002826  -0.050745     0.05082336
   38   40  -0.002888  -0.000009   0.000054    0.002888039
   38   41   0.002848   0.000007  -0.000187    0.002854445
   38   42  -0.000030  -0.001529  -0.000119    0.001533479
   38   43  -0.000052   0.020042  -0.000583     0.02005029
   38   44   0.000004   0.000393  -0.004136    0.004154696
   38   45  -0.002241   0.000043   0.000002     0.00224104
   38   46   0.000012  -0.000350   0.442284      0.4422841
   38   47   0.000699   0.000007  -0.000739    0.001016999
   38   48   0.009370   0.000025   0.000051    0.009370283
   38   49  -0.000012   0.000181  -0.754284      0.7542838
   38   50  -0.000787  -0.000007   0.001615    0.001796566
   39   40  -0.000018   0.000852   0.769707      0.7697077
   39   41  -0.000001  -0.000210   0.013562     0.01356347
   39   42   0.008672  -0.000056  -0.000004    0.008672178
   39   43  -0.001253   0.000040  -0.000024    0.001254076
   39   44  -0.004266   0.000027   0.000019    0.004266263
   39   45  -0.000098  -0.015336   0.000132     0.01533727
   39   46  -0.004500  -0.000017   0.000867    0.004582938
   39   47   0.000020  -0.004010  -0.025855     0.02616411
   39   48   0.000016   0.000413  -0.004208    0.004228081
   39   49   0.004262   0.000017  -0.001499    0.004518289
   39   50  -0.000023   0.004101   0.045501     0.04568522
   40   41  -0.000241  -0.000001  -0.000055   0.0002472996
   40   42  -0.000052  -0.008612  -0.000117    0.008612489
   40   43  -0.000026  -0.003125  -0.003692    0.004837017
   40   44   0.000026   0.004198   0.001547    0.004473751
   40   45  -0.015328   0.000093  -0.000001     0.01532815
   40   46   0.000018  -0.004090  -0.066136     0.06626212
   40   47   0.004464   0.000016  -0.000577    0.004501231
   40   48  -0.001317   0.000010   0.000017     0.00131721
   40   49  -0.000019   0.003918   0.113974      0.1140417
   40   50  -0.004496  -0.000019   0.000942    0.004593569
   41   42   0.000000   0.000185   0.000461   0.0004967402
   41   43   0.000001  -0.000043  -0.228744      0.2287444
   41   44  -0.000000  -0.000078  -0.001576    0.001578284
   41   45   0.000222   0.000000   0.000010    0.000221842
   41   46  -0.000008   0.008945  -0.000101    0.008945522
   41   47   0.008934   0.000008   0.000004    0.008933698
   41   48   0.000061   0.000001   0.000003   6.130907E-05
   41   49   0.000007  -0.016721   0.000386     0.01672504
   41   50  -0.016724  -0.000007  -0.000011     0.01672446
   42   43   0.000058  -0.000000  -0.000003   5.842318E-05
   42   44  -0.000017  -0.000001  -0.000002   1.670829E-05
   42   45   0.000002  -0.000095  -0.342003      0.3420028
   42   46  -0.000114   0.000002  -0.000017   0.0001150244
   42   47  -0.000002  -0.000069   0.004698     0.00469873
   42   48  -0.000001  -0.000297  -0.000470   0.0005561123
   42   49  -0.000068   0.000002   0.000001   6.848239E-05
   42   50  -0.000002  -0.000115   0.000648   0.0006582931
   43   44  -0.000063  -0.000000  -0.000002   6.286412E-05
   43   45   0.000000  -0.000005  -0.008757    0.008757501
   43   46   0.000622   0.000000   0.000009   0.0006221511
   43   47   0.000000  -0.000559   0.000009   0.0005591573
   43   48  -0.000004   0.000190   1.338590        1.33859
   43   49   0.003027   0.000001  -0.000002    0.003027196
   43   50   0.000001  -0.003039  -0.000243    0.003048872
   44   45  -0.000008   0.000340   1.098816       1.098816
   44   46  -0.000004   0.000001  -0.000001   3.901721E-06
   44   47  -0.000001  -0.000061  -0.000480    0.000483613
   44   48  -0.000000  -0.000141   0.010126       0.010127
   44   49   0.000005   0.000002   0.000003   6.073454E-06
   44   50  -0.000001  -0.000123  -0.002306    0.002309705
   45   46   0.000001   0.000048   0.001909    0.001909937
   45   47  -0.000043   0.000001   0.000001    4.28167E-05
   45   48   0.000021   0.000000  -0.000005   2.125769E-05
   45   49   0.000001   0.000029  -0.001001    0.001001669
   45   50  -0.000038   0.000001  -0.000001   3.780523E-05
   46   47   0.000009  -0.000350  -1.151088       1.151088
   46   48  -0.000029   0.031519   0.000015     0.03151944
   46   49   0.000017  -0.000001  -0.000029   3.366764E-05
   46   50   0.000001  -0.000215  -0.057977     0.05797765
   47   48   0.031239   0.000029  -0.000009      0.0312395
   47   49  -0.000004  -0.000015   0.055063     0.05506297
   47   50  -0.000021   0.000001  -0.000029   3.565822E-05
   48   49   0.000008  -0.018718  -0.000013     0.01871756
   48   50  -0.018979  -0.000008  -0.000000     0.01897896
   49   50  -0.000000   0.000016  -0.031447     0.03144664
 --------------------------------------------------------------------------------

                    END OF TRANSITION MOMENT CALCULATION

 
 --------------------------------------------------------------
 
                    Orbital Energies (a.u.)
 --------------------------------------------------------------
 
 Alpha MOs
 -- Occupied --
-10.6006 -10.6005 -10.6005 -10.5985 -10.5985 -10.5984 -10.5984 -10.5983
-10.5983 -10.5979 -10.5966 -10.5965 -10.5965 -10.5960 -10.5960 -10.5959
-10.5959 -10.5959 -10.5959 -10.5911 -10.5911 -10.5911  -1.0350  -0.9930
 -0.9930  -0.9335  -0.9335  -0.9331  -0.8685  -0.8611  -0.8610  -0.8575
 -0.7861  -0.7861  -0.7310  -0.7301  -0.7300  -0.6930  -0.6419  -0.6369
 -0.6368  -0.6110  -0.6110  -0.5591  -0.5590  -0.5491  -0.5340  -0.5340
 -0.5267  -0.5059  -0.4984  -0.4926  -0.4925  -0.4820  -0.4667  -0.4667
 -0.4505  -0.4504  -0.4465  -0.4335  -0.4335  -0.4221  -0.3856  -0.3855
 -0.3842  -0.3842  -0.3790  -0.3104  -0.3001  -0.3000  -0.2999  -0.2136
 -0.2136
 -- Virtual --
  0.0075   0.0217   0.0217   0.0275   0.0983   0.1073   0.1073   0.1129
  0.1135   0.1136   0.1250   0.1250   0.1402   0.1497   0.1679   0.1679
  0.1983   0.1984   0.2100   0.2248   0.2249   0.2747   0.2747   0.3032
  0.3085   0.3085   0.3239   0.3264   0.3293   0.3296   0.3465   0.3628
  0.3629   0.3670   0.3670   0.3979   0.3979   0.4628   0.4629   0.4736
  0.4893   0.5014   0.5139   0.5140   0.5175   0.5175   0.5181   0.5181
  0.5378   0.5396   0.5396   0.5492   0.5492   0.5515   0.5515   0.5596
  0.5609   0.5625   0.5719   0.5827   0.5827   0.5889   0.5914   0.5978
  0.6031   0.6032   0.6065   0.6066   0.6106   0.6109   0.6110   0.6257
  0.6265   0.6266   0.6536   0.6620   0.6620   0.6731   0.6732   0.6740
  0.6741   0.7058   0.7221   0.7396   0.7397   0.7512   0.7554   0.7555
  0.7632   0.7670   0.7738   0.7739   0.7816   0.7879   0.7880   0.7965
  0.8477   0.8477   0.8641   0.8642   0.8977   0.8978   0.9205   0.9239
  0.9240   0.9334   0.9335   0.9427   0.9595   0.9778   0.9837   0.9837
  0.9873   0.9874   0.9894   1.0002   1.0116   1.0117   1.0210   1.0326
  1.0327   1.0376   1.0398   1.0398   1.0551   1.0614   1.0721   1.0721
  1.0769   1.0782   1.0783   1.0925   1.1285   1.1296   1.1296   1.1345
  1.1345   1.1438   1.1684   1.1685   1.1829   1.1830   1.1926   1.2179
  1.2180   1.2653   1.2655   1.2889   1.3033   1.4086   1.4087   1.4455
  1.4483   1.4484   1.4510   1.4538   1.4539   1.4694   1.4695   1.4929
  1.4974   1.4974   1.5000   1.5223   1.5225   1.5286   1.5467   1.5729
  1.5743   1.5743   1.5775   1.5776   1.5869   1.5968   1.6179   1.6180
  1.6334   1.6758   1.6760   1.6783   1.6784   1.6851   1.6851   1.6932
  1.6988   1.6989   1.7175   1.7244   1.7496   1.7496   1.7588   1.7589
  1.7714   1.7716   1.7751   1.7868   1.7874   1.7874   1.8052   1.8067
  1.8106   1.8106   1.8226   1.8478   1.8478   1.8600   1.8644   1.8672
  1.8828   1.8829   1.8908   1.8910   1.8931   1.8933   1.9224   1.9236
  1.9251   1.9252   1.9639   1.9640   1.9746   1.9747   1.9784   1.9848
  2.0055   2.0055   2.0127   2.0127   2.0325   2.0535   2.0535   2.0768
  2.0846   2.0917   2.1266   2.1269   2.1479   2.1480   2.1576   2.1822
  2.1823   2.2046   2.2047   2.2197   2.2563   2.3103   2.3104   2.3159
  2.3160   2.3265   2.3281   2.3282   2.3325   2.3393   2.3463   2.3703
  2.3703   2.4078   2.4079   2.4440   2.4942   2.5174   2.5176   2.5459
  2.5461   2.5479   2.5935   2.5935   2.6605   2.6606   2.6675   2.6921
  2.7399   2.7401   2.7776   2.8099   2.8101   2.8398   2.8399   2.8476
  2.8883   2.9313   2.9314   3.0101   3.0102   3.0116   3.0118   3.0345
  3.0376   3.3115   3.4825   3.4825   3.6462   3.7015   3.7017
 
 Beta MOs
 -- Occupied --
-10.6027 -10.6026 -10.6026 -10.6026 -10.6026 -10.6026 -10.6020 -10.5959
-10.5959 -10.5959 -10.5955 -10.5955 -10.5955 -10.5891 -10.5891 -10.5891
-10.5890 -10.5890 -10.5890 -10.5889 -10.5888 -10.5888  -1.0318  -0.9883
 -0.9882  -0.9289  -0.9268  -0.9268  -0.8621  -0.8576  -0.8575  -0.8498
 -0.7658  -0.7658  -0.7289  -0.7285  -0.7284  -0.6881  -0.6385  -0.6324
 -0.6324  -0.6086  -0.6086  -0.5547  -0.5546  -0.5460  -0.5332  -0.5332
 -0.5255  -0.5017  -0.4907  -0.4907  -0.4882  -0.4789  -0.4635  -0.4635
 -0.4461  -0.4348  -0.4348  -0.4313  -0.4313  -0.4196  -0.3840  -0.3840
 -0.3654  -0.3600  -0.3599  -0.2890  -0.2889  -0.2811  -0.2699
 -- Virtual --
 -0.0515  -0.0515   0.0295   0.0298   0.0299   0.0514   0.1002   0.1088
  0.1088   0.1257   0.1272   0.1272   0.1326   0.1326   0.1410   0.1523
  0.1688   0.1688   0.2013   0.2014   0.2129   0.2355   0.2356   0.2744
  0.2744   0.3029   0.3123   0.3123   0.3262   0.3303   0.3306   0.3314
  0.3466   0.3648   0.3652   0.3680   0.3680   0.3990   0.3990   0.4657
  0.4658   0.4776   0.4997   0.5177   0.5194   0.5194   0.5262   0.5263
  0.5357   0.5357   0.5365   0.5418   0.5418   0.5557   0.5558   0.5616
  0.5629   0.5646   0.5678   0.5679   0.5719   0.5854   0.5855   0.5964
  0.6052   0.6052   0.6096   0.6097   0.6112   0.6113   0.6156   0.6168
  0.6168   0.6271   0.6273   0.6316   0.6546   0.6658   0.6659   0.6762
  0.6762   0.6885   0.6885   0.7051   0.7234   0.7425   0.7426   0.7557
  0.7558   0.7567   0.7650   0.7710   0.7737   0.7782   0.7782   0.7912
  0.7913   0.7998   0.8519   0.8520   0.8683   0.8684   0.9022   0.9023
  0.9219   0.9253   0.9254   0.9380   0.9381   0.9500   0.9597   0.9794
  0.9835   0.9835   0.9934   0.9934   0.9937   1.0068   1.0121   1.0122
  1.0219   1.0369   1.0370   1.0399   1.0462   1.0462   1.0569   1.0715
  1.0788   1.0799   1.0800   1.0833   1.0834   1.0944   1.1321   1.1321
  1.1392   1.1400   1.1401   1.1467   1.1701   1.1702   1.1898   1.1899
  1.1951   1.2201   1.2201   1.2697   1.2698   1.2907   1.3059   1.4101
  1.4102   1.4460   1.4525   1.4555   1.4556   1.4567   1.4568   1.4751
  1.4752   1.5002   1.5002   1.5039   1.5041   1.5236   1.5238   1.5348
  1.5540   1.5761   1.5774   1.5774   1.5799   1.5800   1.5878   1.5980
  1.6200   1.6201   1.6366   1.6770   1.6772   1.6788   1.6790   1.6866
  1.6867   1.6957   1.7042   1.7043   1.7208   1.7255   1.7521   1.7521
  1.7588   1.7589   1.7728   1.7730   1.7740   1.7915   1.7915   1.7932
  1.8061   1.8092   1.8152   1.8152   1.8321   1.8527   1.8527   1.8620
  1.8672   1.8674   1.8833   1.8834   1.8960   1.8962   1.8966   1.8968
  1.9231   1.9254   1.9284   1.9285   1.9701   1.9702   1.9745   1.9746
  1.9797   1.9848   2.0085   2.0085   2.0114   2.0114   2.0377   2.0592
  2.0592   2.0834   2.0847   2.0990   2.1307   2.1310   2.1487   2.1488
  2.1605   2.1867   2.1868   2.2146   2.2147   2.2272   2.2589   2.3136
  2.3138   2.3212   2.3212   2.3291   2.3312   2.3312   2.3382   2.3411
  2.3503   2.3696   2.3696   2.4116   2.4117   2.4506   2.4922   2.5200
  2.5202   2.5498   2.5498   2.5500   2.5955   2.5956   2.6632   2.6633
  2.6666   2.6939   2.7414   2.7416   2.7763   2.8109   2.8111   2.8408
  2.8409   2.8500   2.8892   2.9326   2.9326   3.0105   3.0106   3.0134
  3.0136   3.0349   3.0388   3.3126   3.4836   3.4836   3.6479   3.7027
  3.7030
 --------------------------------------------------------------
 
          Ground-State Mulliken Net Atomic Charges

     Atom                 Charge (a.u.)    Spin (a.u.)
  --------------------------------------------------------
      1 C                     0.043696      -0.275158
      2 C                     0.013696       0.424312
      3 C                    -0.018357      -0.261323
      4 C                     0.019614       0.273708
      5 C                    -0.018350      -0.261323
      6 C                     0.013696       0.424312
      7 C                     0.000627       0.471472
      8 C                    -0.019161      -0.261144
      9 H                    -0.032416      -0.019494
     10 C                     0.021255       0.273951
     11 C                     0.077956      -0.252589
     12 C                     0.021250       0.273952
     13 C                    -0.019154      -0.261144
     14 C                     0.000623       0.471473
     15 H                    -0.032415      -0.019494
     16 C                     0.013884       0.423707
     17 C                     0.044080      -0.274878
     18 C                     0.013282       0.424167
     19 C                    -0.019069      -0.261375
     20 C                     0.000546       0.472604
     21 C                    -0.019069      -0.261375
     22 C                     0.013280       0.424167
     23 C                     0.044081      -0.274878
     24 C                     0.013880       0.423708
     25 H                    -0.021938      -0.018417
     26 H                    -0.021938      -0.018417
     27 H                    -0.004464       0.010900
     28 H                    -0.021964      -0.018391
     29 H                    -0.004681       0.010882
     30 H                    -0.021771      -0.018424
     31 H                    -0.032285      -0.019557
     32 H                    -0.021964      -0.018391
     33 H                    -0.021771      -0.018424
     34 H                    -0.004681       0.010882
  --------------------------------------------------------
  Sum of atomic charges =    -0.000000
  Sum of spin   charges =     2.000000

 -----------------------------------------------------------------
                    Cartesian Multipole Moments
 -----------------------------------------------------------------
    Charge (ESU x 10^10)
                 0.0000
    Dipole Moment (Debye)
         X       0.0000      Y       0.0001      Z      -0.0019
       Tot       0.0019
    Quadrupole Moments (Debye-Ang)
        XX    -107.8592     XY      -0.0000     YY    -107.8772
        XZ       0.0000     YZ      -0.0014     ZZ    -133.4325
    Octopole Moments (Debye-Ang^2)
       XXX      -0.0005    XXY      -0.4728    XYY       0.0005
       YYY       0.5007    XXZ       0.0299    XYZ      -0.0017
       YYZ      -0.1059    XZZ       0.0000    YZZ      -0.0035
       ZZZ      -0.0018
    Hexadecapole Moments (Debye-Ang^3)
      XXXX   -3433.3299   XXXY      -0.0002   XXYY   -1144.4200
      XYYY      -0.0002   YYYY   -3433.2267   XXXZ      -0.0022
      XXYZ      -0.0652   XYYZ      -0.0004   YYYZ       0.1461
      XXZZ    -730.1715   XYZZ      -0.0000   YYZZ    -730.1009
      XZZZ      -0.0000   YZZZ      -0.0009   ZZZZ    -148.4734
 -----------------------------------------------------------------
 Total job time:  10209.91s(wall), 10102.92s(cpu) 
 Thu Apr 18 21:12:17 2024

        *************************************************************
        *                                                           *
        *  Thank you very much for using Q-Chem.  Have a nice day.  *
        *                                                           *
        *************************************************************


