                  Welcome to Q-Chem
     A Quantum Leap Into The Future Of Chemistry


 Q-Chem 6.0 (devel), Q-Chem, Inc., Pleasanton, CA (2022)

 E. Epifanovsky,  A. T. B. Gilbert,  Xintian Feng,  Joonho Lee,  Yuezhi Mao,  
 N. Mardirossian,  P. Pokhilko,  A. White,  M. Wormit,  M. P. Coons,  
 A. L. Dempwolff,  Zhengting Gan,  D. Hait,  P. R. Horn,  L. D. Jacobson,  
 I. Kaliman,  J. Kussmann,  A. W. Lange,  Ka Un Lao,  D. S. Levine,  Jie Liu,  
 S. C. McKenzie,  A. F. Morrison,  K. Nanda,  F. Plasser,  D. R. Rehn,  
 M. L. Vidal,  Zhi-Qiang You,  Ying Zhu,  B. Alam,  B. Albrecht,  
 A. Aldossary,  E. Alguire,  J. H. Andersen,  V. Athavale,  D. Barton,  
 K. Begam,  A. Behn,  N. Bellonzi,  Y. A. Bernard,  E. J. Berquist,  
 H. Burton,  A. Carreras,  K. Carter-Fenk,  Romit Chakraborty,  
 Chandrima Chakravarty,  Junhan Chen,  A. D. Chien,  K. D. Closser,  
 V. Cofer-Shabica,  L. Cunha,  S. Dasgupta,  Jia Deng,  M. de Wergifosse,  
 M. Diedenhofen,  Hainam Do,  S. Ehlert,  Po-Tung Fang,  S. Fatehi,  
 Qingguo Feng,  T. Friedhoff,  B. Ganoe,  J. Gayvert,  Qinghui Ge,  
 G. Gidofalvi,  M. Goldey,  J. Gomes,  C. Gonzalez-Espinoza,  S. Gulania,  
 A. Gunina,  J. A. Gyamfi,  M. W. D. Hanson-Heine,  P. H. P. Harbach,  
 A. W. Hauser,  M. F. Herbst,  M. Hernandez Vera,  M. Hodecker,  
 Z. C. Holden,  S. Houck,  Xunkun Huang,  Kerwin Hui,  B. C. Huynh,  
 K. Ikeda,  M. Ivanov,  Hyunjun Ji,  Zuxin Jin,  Hanjie Jiang,  B. Kaduk,  
 S. Kaehler,  R. Kang,  K. Khistyaev,  Jaehoon Kim,  Yongbin Kim,  
 P. Klunzinger,  Z. Koczor-Benda,  Joong Hoon Koh,  D. Kosenkov,  
 Saikiran Kotaru,  L. Koulias,  T. Kowalczyk,  C. M. Krauter,  K. Kue,  
 A. Kunitsa,  T. Kus,  A. Landau,  K. V. Lawler,  D. Lefrancois,  S. Lehtola,  
 Rain Li,  Shaozhi Li,  Yi-Pei Li,  Jiashu Liang,  M. Liebenthal,  
 Hung-Hsuan Lin,  You-Sheng Lin,  Fenglai Liu,  Kuan-Yu Liu,  
 M. Loipersberger,  A. Luenser,  C. Malbon,  A. Manjanath,  P. Manohar,  
 E. Mansoor,  S. F. Manzer,  Shan-Ping Mao,  A. V. Marenich,  T. Markovich,  
 S. Mason,  F. Matz,  S. A. Maurer,  P. F. McLaughlin,  M. F. S. J. Menger,  
 J.-M. Mewes,  S. A. Mewes,  P. Morgante,  Mohammad Mostafanejad,  
 J. W. Mullinax,  K. J. Oosterbaan,  G. Paran,  V. Parravicini,  
 Alexander C. Paul,  Suranjan K. Paul,  F. Pavosevic,  Zheng Pei,  S. Prager,  
 E. I. Proynov,  E. Ramos,  B. Rana,  A. E. Rask,  A. Rettig,  R. M. Richard,  
 F. Rob,  E. Rossomme,  T. Scheele,  M. Scheurer,  M. Schneider,  
 P. E. Schneider,  N. Sergueev,  S. M. Sharada,  Hengyuan Shen,  
 W. Skomorowski,  D. W. Small,  C. J. Stein,  Yingli Su,  Yu-Chuan Su,  
 E. J. Sundstrom,  Zhen Tao,  J. Thirman,  Hung-Yi Tsai,  T. Tsuchimochi,  
 N. M. Tubman,  C. Utku,  S. P. Veccham,  O. Vydrov,  J. Wenzel,  
 Jonathan Wong,  J. Witte,  A. Yamada,  Chou-Hsun Yang,  Kun Yao,  
 S. Yeganeh,  S. R. Yost,  A. Zech,  F. Zeller,  Igor Ying Zhang,  
 Xing Zhang,  Yu Zhang,  D. Zuev,  A. Aspuru-Guzik,  A. T. Bell,  
 N. A. Besley,  K. B. Bravaya,  B. R. Brooks,  D. Casanova,  Jeng-Da Chai,  
 Hsing-Ta Chen,  S. Coriani,  C. J. Cramer,  A. E. DePrince, III,  
 R. A. DiStasio Jr.,  A. Dreuw,  B. D. Dunietz,  T. R. Furlani,  
 W. A. Goddard III,  S. Grimme,  S. Hammes-Schiffer,  T. Head-Gordon,  
 W. J. Hehre,  Chao-Ping Hsu,  T.-C. Jagau,  Yousung Jung,  A. Klamt,  
 Jing Kong,  D. S. Lambrecht,  Xiangyuan Li,  WanZhen Liang,  N. J. Mayhall,  
 C. W. McCurdy,  J. B. Neaton,  T. Neudecker,  C. Ochsenfeld,  
 J. A. Parkhill,  R. Peverati,  V. A. Rassolov,  Haisheng Ren,  Yihan Shao,  
 L. V. Slipchenko,  R. P. Steele,  J. E. Subotnik,  A. J. W. Thom,  
 A. Tkatchenko,  D. G. Truhlar,  T. Van Voorhis,  Fan Wang,  
 T. A. Wesolowski,  K. B. Whaley,  H. L. Woodcock III,  P. M. Zimmerman,  
 S. Faraji,  P. M. W. Gill,  M. Head-Gordon,  J. M. Herbert,  A. I. Krylov

 Contributors to earlier versions of Q-Chem not listed above: 
 R. D. Adamson,  B. Austin,  R. Baer,  J. Baker,  G. J. O. Beran,  
 K. Brandhorst,  S. T. Brown,  E. F. C. Byrd,  Arup K. Chakraborty,  
 G. K. L. Chan,  Chun-Min Chang,  Yunqing Chen,  C.-L. Cheng,  
 Siu Hung Chien,  D. M. Chipman,  D. L. Crittenden,  H. Dachsel,  
 R. J. Doerksen,  A. D. Dutoi,  R. G. Edgar,  J. Fosso-Tande,  
 L. Fusti-Molnar,  D. Ghosh,  A. Ghysels,  A. Golubeva-Zadorozhnaya,  
 J. Gonthier,  M. S. Gordon,  S. R. Gwaltney,  G. Hawkins,  J. E. Herr,  
 A. Heyden,  S. Hirata,  E. G. Hohenstein,  G. Kedziora,  F. J. Keil,  
 C. Kelley,  Jihan Kim,  R. A. King,  R. Z. Khaliullin,  P. P. Korambath,  
 W. Kurlancheek,  A. Laurent,  A. M. Lee,  M. S. Lee,  S. V. Levchenko,  
 Ching Yeh Lin,  D. Liotard,  E. Livshits,  R. C. Lochan,  I. Lotan,  
 L. A. Martinez-Martinez,  P. E. Maslen,  N. Nair,  D. P. O'Neill,  
 D. Neuhauser,  E. Neuscamman,  C. M. Oana,  R. Olivares-Amaya,  R. Olson,  
 T. M. Perrine,  B. Peters,  P. A. Pieniazek,  A. Prociuk,  Y. M. Rhee,  
 J. Ritchie,  M. A. Rohrdanz,  E. Rosta,  N. J. Russ,  H. F. Schaefer III,  
 M. W. Schmidt,  N. E. Schultz,  S. Sharma,  N. Shenvi,  C. D. Sherrill,  
 A. C. Simmonett,  A. Sodt,  T. Stein,  D. Stuck,  K. S. Thanthiriwatte,  
 V. Vanovschi,  L. Vogt,  Tao Wang,  A. Warshel,  M. A. Watson,  
 C. F. Williams,  Q. Wu,  X. Xu,  Jun Yang,  W. Zhang,  Yan Zhao

   Please cite Q-Chem as follows:
  "Software for the frontiers of quantum chemistry:
   An overview of developments in the Q-Chem 5 package"
   J. Chem. Phys. 155, 084801 (2021)
   https://doi.org/10.1063/5.0055522 (open access)

 Q-Chem 6.0.1 for Intel X86 EM64T Linux

 Parts of Q-Chem use Armadillo 9.900.5 (Nocturnal Misbehaviour).
 http://arma.sourceforge.net/

 Q-Chem begins on Thu Jul  6 14:23:36 2023  

 Host: atlas-185
0

     Scratch files written to ./qchem291410//
 Processing $rem in /scratch/abel/SOFTWARE/qchem/config/preferences:
 Processing $rem in /dipc/acebg/.qchemrc:

 Checking the input file for inconsistencies... 	...done.

--------------------------------------------------------------
User input:
--------------------------------------------------------------
$comment
 RAS-SF CALCULATION
$end

$molecule
 READ quinoline.molecule
$end

$rem
!**CALCULATION TYPE***     
JOBTYPE            sp    
EXCHANGE           HF
CORRELATION        RASCI    !RASCI=Casanova; RASCI2=Zimmerman
BASIS              def2-TZVP

!***SCF REFERENCE***
!SKIP_SCFMAN        FALSE
UNRESTRICTED       FALSE
!SCF_GUESS          core
!SCF_GUESS_MIX      FALSE
!SCF_GUESS_ALWAYS   FALSE
MAX_SCF_CYCLES     500
!SCF_CONVERGENCE    8
!SCF_ALGORITHM      DIIS !DIIS,DM,DIIS_DM,GDM,DIIS_GDM,GD

!SYMMETRY           TRUE !use of symmetry for calculating integrals
!SYM_IGNORE         FALSE !turn off using symmetry
!SYM_TOL            5 !tolerance for determining point group

!THRESH             14
SCF_FINAL_PRINT     1 !0,1,2,3

!****RAS-SF****
RAS_ROOTS          20       !number of RAS-CI roots to be computed
SET_ITER           150     !number of iterations in RASCI
RAS_ELEC           6       !number of electrons in RAS2
RAS_ELEC_ALPHA     4       !spin-α electrons in RAS2 
RAS_ELEC_BETA      2      !spin-β electrons in RAS2

RAS_ACT            10       !number of orbitals in RAS2 
RAS_ACT_ORB   [32,34,35,37,39,40,42,43,49,50]  !user-selected RAS2 orbitals
RAS_OCC            31       !number of orbitals in RAS1
N_FROZEN_CORE      0     !Number of frozen core orbitals
N_FROZEN_VIRTUAL   271      !Number of frozen virtual orbitals

RAS_DO_HOLE        TRUE   !presence of hole excitations in RAS-CI wave function
RAS_DO_PART        TRUE   !presence of particle excitations
!RAS_AMPL_PRINT     10     !threshold (×10 2 ) for the CI amplitudes

!RAS_GUESS_CS       0      !number of closed shell guess conﬁgurations
!RAS_SPIN_MULT      0      !spin multiplicity: 0=any, 2n+1=defined 
!RAS_SRDFT          FALSE  !short-range density functional RAS-CI
!RAS_NFRAG          0     !fragments of excitation analysis in RASCI

RAS_PRINT          2      !level of information
RAS_NATORB         TRUE   !computation of the natural orbital occupancies
!RAS_NATORB_STATE  0      !Saves NO of i RAS computed state in .fchk ﬁle
!RAS_FOD            TRUE

!****RAS-SOC****
CALC_SOC           TRUE   !calculate SOC for EOM-CC, RAS-CI, ADC, TDDFT/TDA and TDDFT
!RAS_SOC_2E        TRUE   !two-electron mean-ﬁeld contribution, default=true
RAS_SOC_SYM_DENS   TRUE   !averaging of α and β densities

!****MEMORY****
MEM_TOTAL          60000 !Default 2000 MB
MEM_STATIC         16000  !Default 64 MB

!**Molecular Properties and Analysis **                                                                                          
!GUI                2
STATE_ANALYSIS     TRUE
MOLDEN_FORMAT      TRUE
PRINT_ORBITALS     20
$end                                           

--------------------------------------------------------------
 ----------------------------------------------------------------
             Standard Nuclear Orientation (Angstroms)
    I     Atom           X                Y                Z
 ----------------------------------------------------------------
    1      C      -0.0559353627    -1.3989916065    -0.0000000000
    2      C      -0.0782415914     1.3256554364     0.0000000000
    3      C       2.3016375305    -2.6538713366    -0.0000000000
    4      C       4.6667611846    -1.2654684416    -0.0000000000
    5      C       4.6497706855     1.3016649328    -0.0000000000
    6      C       2.2722800840     2.6377967747    -0.0000000000
    7      N      -2.2102262665     2.6945577754     0.0000000000
    8      C      -2.3995793248    -2.6420616021     0.0000000000
    9      C      -4.6640560358    -1.1648929097     0.0000000000
   10      C      -4.4878393265     1.4051065478     0.0000000000
   11      H      -2.4867924844    -4.6867516752     0.0000000000
   12      H      -6.4947443947    -2.0790860337     0.0000000000
   13      H      -6.1538984074     2.5944746854     0.0000000000
   14      H       2.3432526882    -4.7016054474    -0.0000000000
   15      H       6.4266657394    -2.3097175760    -0.0000000000
   16      H       6.3951035242     2.3693643728    -0.0000000000
   17      H       2.2132101396     4.6817904753    -0.0000000000
 ----------------------------------------------------------------
 Molecular Point Group                 Cs    NOp =  2
 Largest Abelian Subgroup              Cs    NOp =  2
 Nuclear Repulsion Energy =         242.66459362 hartrees
 There are       35 alpha and       33 beta electrons
 Requested basis set is def2-TZVP
 There are 138 shells and 352 basis functions

 Q-Chem warning in module libmdc/get_mega.C, line 167:

 Allowed MEM_STATIC has been capped at MEM_STATIC=8191.
 Reduce the value of MEM_STATIC to silence this warning.


 Total QAlloc Memory Limit  60000 MB
 Mega-Array Size      8007 MB
 MEM_STATIC part      8191 MB

 A cutoff of  1.0D-09 yielded   4938 shell pairs
 There are     31978 function pairs (     41050 Cartesian)
 Smallest overlap matrix eigenvalue = 5.29E-03

 Scale SEOQF with 1.000000e-02/1.000000e-01/1.000000e+00

 Standard Electronic Orientation quadrupole field applied
 Nucleus-field energy     =     0.0000000263 hartrees
 Guess from superposition of atomic densities
 Warning:  Energy on first SCF cycle will be non-variational
 SAD guess density has 68.000000 electrons

 -----------------------------------------------------------------------
  General SCF calculation program by
  Eric Jon Sundstrom, Paul Horn, Yuezhi Mao, Dmitri Zuev, Alec White,
  David Stuck, Shaama M.S., Shane Yost, Joonho Lee, David Small,
  Daniel Levine, Susi Lehtola, Hugh Burton, Evgeny Epifanovsky,
  Bang C. Huynh
 -----------------------------------------------------------------------
 Hartree-Fock
 Orthonormalizing orbitals
 A restricted open-shell SCF calculation will be
 performed using GDM
 SCF converges when RMS gradient is below 1.0e-05
 ---------------------------------------
  Cycle       Energy        RMS Gradient
 ---------------------------------------
    1    -393.2650479735      9.43e-01   Descent step
    2    -394.2567273436      8.01e-01   Descent step
    3    -394.9430240917      1.40e+00   Descent step
    4    -395.4484434249      2.08e-01   Descent step
    5    -395.6853396054      1.43e-01   Descent step
    6    -395.8248742606      1.58e-01   Descent step
    7    -395.8582770774      5.79e-01   Descent step
    8    -395.8336163764      7.63e-01  Line search: overstep
    9    -395.9236964097      9.84e-02   Dog-leg BFGS step
   10    -395.9844929406      2.37e-01   Descent step
   11    -395.9765857118      3.28e-01  Line search: overstep
   12    -396.0127798714      9.15e-02   Dog-leg BFGS step
   13    -396.0370954765      2.71e-01   Descent step
   14    -396.0218725376      4.59e-01  Line search: overstep
   15    -396.0749800998      7.11e-02   Dog-leg BFGS step
   16    -396.1119232607      1.19e-01   Dog-leg BFGS step
   17    -396.1356995965      2.80e-01   Normal BFGS step
   18    -396.1425272714      2.94e-01   Normal BFGS step
   19    -396.1410144879      1.46e-01  Line search: overstep
   20    -396.1582341207      1.09e-01   Normal BFGS step
   21    -396.1579319176      1.00e-01  Line search: overstep
   22    -396.1637123976      3.36e-02   Normal BFGS step
   23    -396.1621147602      6.88e-02  Line search: overstep
   24    -396.1650271068      1.38e-02   Normal BFGS step
   25    -396.1652080646      4.54e-02   Normal BFGS step
   26    -396.1657370662      4.02e-02   Normal BFGS step
   27    -396.1657978949      2.85e-02   Normal BFGS step
   28    -396.1663243046      8.33e-03   Normal BFGS step
   29    -396.1664514543      1.09e-02   Normal BFGS step
   30    -396.1666252434      8.14e-03   Normal BFGS step
   31    -396.1667562917      7.58e-03   Normal BFGS step
   32    -396.1668584235      6.54e-03   Normal BFGS step
   33    -396.1669579252      6.71e-03   Normal BFGS step
   34    -396.1671058617      6.12e-03   Normal BFGS step
   35    -396.1672930696      4.69e-03   Normal BFGS step
   36    -396.1673397004      5.64e-03   Normal BFGS step
   37    -396.1673849076      1.99e-03   Normal BFGS step
   38    -396.1674000787      2.58e-03   Normal BFGS step
   39    -396.1674105220      2.57e-03   Normal BFGS step
   40    -396.1674138595      1.45e-03   Normal BFGS step
   41    -396.1674170204      5.52e-04   Normal BFGS step
   42    -396.1674172652      1.11e-03   Normal BFGS step
   43    -396.1674180216      9.76e-04   Normal BFGS step
   44    -396.1674180762      5.81e-04   Normal BFGS step
   45    -396.1674182818      8.72e-04   Normal BFGS step
   46    -396.1674180970      1.23e-03  Line search: overstep
   47    -396.1674184047      1.49e-04   Normal BFGS step
   48    -396.1674184131      1.53e-04   Normal BFGS step
   49    -396.1674184604      2.28e-04   Normal BFGS step
   50    -396.1674185100      8.93e-05   Normal BFGS step
   51    -396.1674185951      6.62e-05   Normal BFGS step
   52    -396.1674186271      1.83e-04   Normal BFGS step
   53    -396.1674186254      1.72e-04   Normal BFGS step
   54    -396.1674186277      6.20e-05   Normal BFGS step
   55    -396.1674185808      5.68e-05  Line search: overstep
   56    -396.1674186222      5.01e-05   Normal BFGS step
   57    -396.1674186082      4.03e-05  Line search: overstep
   58    -396.1674186291      4.49e-05   Normal BFGS step
   59    -396.1674185930      1.02e-04  Line search: overstep
  GDM::WARNING energy changes are now smaller than effective accuracy.
  GDM::        calculation will continue, but THRESH should be increased
  GDM::        or SCF_CONVERGENCE decreased. 
  GDM::        effective_thresh = 8.91e-09
   60    -396.1674186224      3.80e-05   Normal BFGS step
   61    -396.1674185712      9.86e-05  Line search: overstep
   62    -396.1674186128      2.92e-05  Line search: overstep
   63    -396.1674186363      3.71e-05  Line search: understep
   64    -396.1674186105      3.00e-05  Line search: overstep
   65    -396.1674186275      3.64e-05   Normal BFGS step
  GDM::WARNING energy changes are now smaller than effective accuracy.
  GDM::        calculation will continue, but THRESH should be increased
  GDM::        or SCF_CONVERGENCE decreased. 
  GDM::        effective_thresh = 8.91e-09
   66    -396.1674186209      2.66e-05   Normal BFGS step
   67    -396.1674186679      2.12e-05   Normal BFGS step
   68    -396.1674188222      6.89e-06  Convergence criterion met
The disked orbital energies are calculated using alpha and beta Focks
 ---------------------------------------
 Alpha HF Exchange    Energy = -26.57645944548441
 Beta HF Exchange     Energy = -25.65628306109981
 Nuclear Attraction   Energy =   0.00000000000000
 One-Electron (alpha) Energy = -517.72844441943721
 One-Electron (beta)  Energy = -496.26163897944480
 Total Coulomb        Energy = 427.39081344121604
 Final Alpha MO Eigenvalues
            1           2           3           4           5           6
    1 -15.6950307 -11.4865107 -11.4754375 -11.4710082 -11.4634796 -11.4464166
            7           8           9          10          11          12
    1 -11.4424779 -11.4283866 -11.4097604 -11.3492118  -0.9648198  -0.8246186
           13          14          15          16          17          18
    1  -0.8284219  -0.8035071  -0.8036785  -0.7854860  -0.7541300  -0.7812208
           19          20          21          22          23          24
    1  -0.7678405  -0.6973068  -0.4441373  -0.4142110  -0.4121602  -0.4021666
           25          26          27          28          29          30
    1  -0.3863044  -0.3845056  -0.3797561  -0.3664982  -0.3629128  -0.3455964
           31          32          33          34          35          36
    1  -0.3522034  -0.3331921  -0.2889139  -0.4701703  -0.4509915  -0.0591086
           37          38          39          40          41          42
    1  -0.0367247  -0.0304960  -0.0198756  -0.0167893  -0.0129259  -0.0050688
           43          44          45          46          47          48
    1   0.0072929   0.0079270   0.0105103   0.0144950   0.0223791   0.0310143
           49          50          51          52          53          54
    1   0.0343407   0.0324065   0.0389729   0.0394343   0.0521518   0.0586793
           55          56          57          58          59          60
    1   0.0753479   0.1159808   0.1193917   0.2393119   0.2655595   0.2993247
           61          62          63          64          65          66
    1   0.3048965   0.3158934   0.3264650   0.3303364   0.3344265   0.3388670
           67          68          69          70          71          72
    1   0.3511555   0.3548597   0.3615731   0.3640655   0.3640240   0.3685592
           73          74          75          76          77          78
    1   0.3744232   0.3752566   0.3830014   0.3912343   0.3935208   0.3967095
           79          80          81          82          83          84
    1   0.3988231   0.4019225   0.4073640   0.4159641   0.4176368   0.4298237
           85          86          87          88          89          90
    1   0.4310230   0.4340108   0.4433615   0.4452333   0.4546070   0.4638230
           91          92          93          94          95          96
    1   0.4705703   0.5015921   0.5102144   0.5244565   0.5405463   0.5410397
           97          98          99         100         101         102
    1   0.5575168   0.6059593   0.6214820   0.6266940   0.6447938   0.6850462
          103         104         105         106         107         108
    1   0.6990097   0.7128898   0.7164434   0.7334261   0.7425930   0.7440690
          109         110         111         112         113         114
    1   0.7481496   0.7535977   0.7554333   0.7589616   0.7684961   0.7734739
          115         116         117         118         119         120
    1   0.7885267   0.7973167   0.8031979   0.8173899   0.8195517   0.8325190
          121         122         123         124         125         126
    1   0.8385412   0.8448400   0.8492746   0.8530556   0.8918345   0.8976889
          127         128         129         130         131         132
    1   0.9264893   0.9266891   0.9420930   0.9518853   0.9557079   0.9544657
          133         134         135         136         137         138
    1   0.9795236   0.9927016   0.9942608   0.9997404   1.0349302   1.0420077
          139         140         141         142         143         144
    1   1.0447330   1.0680874   1.1717885   1.1962323   1.2050640   1.2204640
          145         146         147         148         149         150
    1   1.2223043   1.2352582   1.2600780   1.2775404   1.3056905   1.3094033
          151         152         153         154         155         156
    1   1.3136477   1.3400598   1.3423627   1.3610867   1.3987461   1.4164464
          157         158         159         160         161         162
    1   1.4355148   1.4622620   1.4728369   1.5134283   1.5259642   1.5567932
          163         164         165         166         167         168
    1   1.5710417   1.6005529   1.5955800   1.6040033   1.6362559   1.6354437
          169         170         171         172         173         174
    1   1.6405107   1.6477286   1.6522866   1.6637112   1.6687985   1.6713910
          175         176         177         178         179         180
    1   1.6797959   1.6859156   1.6878175   1.6892941   1.6915097   1.6932591
          181         182         183         184         185         186
    1   1.6989828   1.7001377   1.7089032   1.7070616   1.7014555   1.7149997
          187         188         189         190         191         192
    1   1.7208872   1.7232894   1.7303975   1.7358543   1.7505156   1.7516180
          193         194         195         196         197         198
    1   1.7640117   1.7715149   1.7754907   1.7920839   1.8196175   1.8361169
          199         200         201         202         203         204
    1   1.8590451   1.8974301   1.9147233   1.9253679   1.9943717   2.0010574
          205         206         207         208         209         210
    1   2.0187879   2.0256526   2.0484589   2.0523264   2.0556888   2.0628811
          211         212         213         214         215         216
    1   2.0706819   2.2812172   2.3925480   2.4968147   2.4994060   2.5854432
          217         218         219         220         221         222
    1   2.5877981   2.6062842   2.6115118   2.6143253   2.6181438   2.6299884
          223         224         225         226         227         228
    1   2.8332400   2.8425866   2.8472883   2.8471959   2.8538788   2.8565445
          229         230         231         232         233         234
    1   2.8636314   2.8627793   2.8698746   2.8692035   2.8728752   2.8702200
          235         236         237         238         239         240
    1   2.8757737   2.8815844   2.8830589   2.8886188   2.8885960   2.8953319
          241         242         243         244         245         246
    1   2.8982872   2.9038818   2.8991767   2.9060649   2.9101512   2.9107096
          247         248         249         250         251         252
    1   2.9200962   2.9238465   2.9208071   2.9249271   2.9320532   2.9291953
          253         254         255         256         257         258
    1   2.9336407   2.9311748   2.9379187   2.9401219   2.9433621   2.9441039
          259         260         261         262         263         264
    1   2.9506337   2.9516699   2.9584612   2.9607225   2.9628246   2.9653439
          265         266         267         268         269         270
    1   2.9729578   2.9789103   2.9809808   2.9898901   2.9902966   2.9962159
          271         272         273         274         275         276
    1   3.0085067   3.0176359   3.0210054   3.0205959   3.0293287   3.0317337
          277         278         279         280         281         282
    1   3.0349107   3.0389373   3.0461544   3.0530088   3.0734792   3.0817522
          283         284         285         286         287         288
    1   3.0920476   3.1197501   3.1240243   3.1385894   3.1625765   3.1796142
          289         290         291         292         293         294
    1   3.1813506   3.1795600   3.1889751   3.2085193   3.2103128   3.2237040
          295         296         297         298         299         300
    1   3.2341181   3.2457384   3.2570179   3.2739205   3.2854979   3.2986076
          301         302         303         304         305         306
    1   3.3053408   3.3076531   3.3097929   3.3204083   3.3195803   3.3288297
          307         308         309         310         311         312
    1   3.3261698   3.3384304   3.3572098   3.3744869   3.3787051   3.4124144
          313         314         315         316         317         318
    1   3.4142421   3.4204088   3.4290238   3.4371120   3.4859624   3.4968361
          319         320         321         322         323         324
    1   3.5164313   3.5417717   3.5571679   3.6110560   3.6358489   3.6580272
          325         326         327         328         329         330
    1   3.6721072   3.6940692   3.7080568   3.7250665   3.7616413   3.7771290
          331         332         333         334         335         336
    1   4.2193896   4.2343655   4.2387771   4.2452482   4.2847562   4.2862892
          337         338         339         340         341         342
    1   4.3016798   4.8491496   4.8588704   4.8811120   5.0171606   5.0528796
          343         344         345         346         347         348
    1  22.1428627  22.1787090  22.2695005  22.2716322  22.3228281  22.3965283
          349         350         351         352
    1  22.4051554  22.4412047  22.5290867  32.4674544
 Final Beta MO Eigenvalues
            1           2           3           4           5           6
    1 -15.6950269 -11.4865071 -11.4754351 -11.4699271 -11.4622996 -11.4463948
            7           8           9          10          11          12
    1 -11.4195277 -11.4052730 -11.4092595 -11.3486754  -0.9647223  -0.8245318
           13          14          15          16          17          18
    1  -0.8159582  -0.7794096  -0.7684679  -0.7592987  -0.7518843  -0.7154202
           19          20          21          22          23          24
    1  -0.7139314  -0.6773216  -0.4441249  -0.4140695  -0.4077745  -0.3985823
           25          26          27          28          29          30
    1  -0.3822555  -0.3816328  -0.3692301  -0.3648228  -0.3541022  -0.3417252
           31          32          33          34          35          36
    1  -0.3333885  -0.3317502  -0.2887413   0.0980168   0.1215027  -0.0582709
           37          38          39          40          41          42
    1  -0.0301778  -0.0303993  -0.0073726  -0.0029724  -0.0086409  -0.0005346
           43          44          45          46          47          48
    1   0.0118733   0.0161065   0.0162853   0.0215520   0.0333932   0.0377461
           49          50          51          52          53          54
    1   0.0350951   0.0433801   0.0478166   0.0486085   0.0538088   0.0640382
           55          56          57          58          59          60
    1   0.0804281   0.1222800   0.1349389   0.2433083   0.2710635   0.3046195
           61          62          63          64          65          66
    1   0.3119903   0.3223537   0.3325258   0.3345043   0.3423157   0.3400750
           67          68          69          70          71          72
    1   0.3594502   0.3625717   0.3639061   0.3665375   0.3734810   0.3732008
           73          74          75          76          77          78
    1   0.3749465   0.3815242   0.3848153   0.3948713   0.3970690   0.3984682
           79          80          81          82          83          84
    1   0.4040837   0.4047693   0.4123042   0.4176612   0.4202867   0.4320745
           85          86          87          88          89          90
    1   0.4352855   0.4371552   0.4442801   0.4494628   0.4567249   0.4714253
           91          92          93          94          95          96
    1   0.4742425   0.5059225   0.5171911   0.5288780   0.5415238   0.5427169
           97          98          99         100         101         102
    1   0.5636212   0.6139377   0.6240900   0.6323366   0.6461473   0.7034393
          103         104         105         106         107         108
    1   0.7006353   0.7138242   0.7224012   0.7577211   0.7489963   0.7522475
          109         110         111         112         113         114
    1   0.7557238   0.7608749   0.7605169   0.7809789   0.7747180   0.7841342
          115         116         117         118         119         120
    1   0.7913494   0.8063818   0.8171910   0.8255126   0.8229486   0.8353849
          121         122         123         124         125         126
    1   0.8446873   0.8484522   0.8512978   0.8616488   0.8949534   0.9047894
          127         128         129         130         131         132
    1   0.9344114   0.9361385   0.9498100   0.9564678   0.9696870   0.9783573
          133         134         135         136         137         138
    1   0.9834872   0.9972974   0.9945346   1.0035859   1.0440854   1.0439207
          139         140         141         142         143         144
    1   1.0513941   1.0742244   1.1974214   1.2112918   1.2216793   1.2221887
          145         146         147         148         149         150
    1   1.2374733   1.2451650   1.2693095   1.2858074   1.3057232   1.3196156
          151         152         153         154         155         156
    1   1.3166913   1.3401086   1.3495017   1.3666586   1.4041139   1.4196747
          157         158         159         160         161         162
    1   1.4481106   1.4723650   1.4773780   1.5240760   1.5336853   1.5673475
          163         164         165         166         167         168
    1   1.5799341   1.6018793   1.6175025   1.6062379   1.6440542   1.6480944
          169         170         171         172         173         174
    1   1.6429581   1.6497665   1.6550173   1.6646921   1.6740652   1.6743478
          175         176         177         178         179         180
    1   1.6830418   1.6860612   1.6893910   1.6945939   1.6923935   1.7027175
          181         182         183         184         185         186
    1   1.6990589   1.7014497   1.7091301   1.7160503   1.7293468   1.7162314
          187         188         189         190         191         192
    1   1.7271457   1.7246420   1.7353910   1.7400240   1.7520895   1.7586814
          193         194         195         196         197         198
    1   1.7667718   1.7729810   1.7824316   1.7999805   1.8228800   1.8458254
          199         200         201         202         203         204
    1   1.8767167   1.9045769   1.9166166   1.9378333   1.9956586   2.0189532
          205         206         207         208         209         210
    1   2.0225098   2.0271700   2.0545874   2.0543026   2.0577220   2.0644978
          211         212         213         214         215         216
    1   2.0758446   2.2812768   2.3925666   2.4970995   2.4995957   2.5862132
          217         218         219         220         221         222
    1   2.5882691   2.6082411   2.6118931   2.6154008   2.6202706   2.6327428
          223         224         225         226         227         228
    1   2.8332450   2.8437505   2.8569242   2.8640232   2.8549056   2.8631713
          229         230         231         232         233         234
    1   2.8679899   2.8796303   2.8698885   2.8785613   2.8803653   2.8860012
          235         236         237         238         239         240
    1   2.8866264   2.8897426   2.8979815   2.8961705   2.9076647   2.9001766
          241         242         243         244         245         246
    1   2.9000769   2.9053624   2.9166946   2.9109849   2.9102125   2.9232334
          247         248         249         250         251         252
    1   2.9234952   2.9239087   2.9393020   2.9354763   2.9333191   2.9442693
          253         254         255         256         257         258
    1   2.9381772   2.9494558   2.9398048   2.9542540   2.9506986   2.9522018
          259         260         261         262         263         264
    1   2.9534003   2.9648151   2.9606293   2.9608607   2.9724709   2.9813447
          265         266         267         268         269         270
    1   2.9851770   2.9810513   2.9925356   2.9921182   2.9965789   3.0026753
          271         272         273         274         275         276
    1   3.0136739   3.0197146   3.0240408   3.0274134   3.0303341   3.0380019
          277         278         279         280         281         282
    1   3.0433047   3.0431466   3.0491484   3.0581995   3.0829857   3.0913490
          283         284         285         286         287         288
    1   3.0979006   3.1207082   3.1301739   3.1631256   3.1629475   3.1796666
          289         290         291         292         293         294
    1   3.1849860   3.1975667   3.2032243   3.2160239   3.2355884   3.2255375
          295         296         297         298         299         300
    1   3.2392962   3.2468443   3.2832313   3.2995057   3.2924768   3.3016613
          301         302         303         304         305         306
    1   3.3160171   3.3131917   3.3244683   3.3210072   3.3273605   3.3352431
          307         308         309         310         311         312
    1   3.3554416   3.3512789   3.3575587   3.3799516   3.3791433   3.4214183
          313         314         315         316         317         318
    1   3.4221797   3.4230985   3.4347341   3.4506167   3.4974872   3.5016882
          319         320         321         322         323         324
    1   3.5272031   3.5476412   3.5599809   3.6436525   3.6497217   3.6804902
          325         326         327         328         329         330
    1   3.6822477   3.7019594   3.7217627   3.7293988   3.7668062   3.7876193
          331         332         333         334         335         336
    1   4.2194387   4.2343721   4.2387972   4.2452575   4.2847619   4.2863269
          337         338         339         340         341         342
    1   4.3016933   4.8491550   4.8588865   4.8811230   5.0171757   5.0529141
          343         344         345         346         347         348
    1  22.1462311  22.1803477  22.2711365  22.2797285  22.3259977  22.4004261
          349         350         351         352
    1  22.4090439  22.4451530  22.5318644  32.4674577
 SCF time:   CPU 394.69s  wall 401.00s 
<S^2> =          2.000000000
 SCF   energy in the final basis set =     -396.1674188222
 Total energy in the final basis set =     -396.1674188222
  
     ##========================================##
     ||                                        ||
     ||              R A S M A N 2             ||
     ||________________________________________||
     ||                                        ||
     ||  Author:                               ||
     ||                                        ||
     ||        David Casanova (2010)           ||
     ||                                        ||
     ##========================================##
  
Setting single-point xc-functionals (if necessary)

  ***************************************************
  *  RAS-CI Dimensions:                             *
  *                                                 *
  *  Active Elec.:   6 ( 4, 2)   Active Orb.:  10   *
  *  Doubly Occ. :  31           Doubly Vir.: 311   *
  *  Frozen Occ. :   0           Frozen Vir.: 271   *
  *                                                 *
  *  Total CI configurations:   1442190             * 
  *    Active configurations:      9450             * 
  *      Hole configurations:   1132740             * 
  *  Particle configurations:    300000             * 
  *                                                 *
  *   Requested states:       20                    *
  *  Spin multiplicity: Any multiplicity            *
  *                                                 *
  ***************************************************
-----------------------------------------
    Memory requirements of RASCI

 Each CI-vector requires     11.00 MiB 
 Max. subspace vectors           3000      

 Reduced Lists                0.01 MiB 
 Excitation Lists             0.01 MiB 
 Excitation Lists Sign        0.01 MiB 
 CI-space (Max)           33297.86 MiB 
 Integrals                  170.29 MiB 
 Memory required (Max)    33297.88 MiB 
 Memory available          7811.55 MiB 

 Q-Chem warning in module rasman2/ras_mem_check.C, line 162:

 Static memory may be insufficient to store the subspace vectors


    Disk requirements of RASCI

 Fock matrix                  1.89 MiB 
 2-electron integrals        10.94 MiB 
 CI-space                 66018.22 MiB 
 Disk required            66031.05 MiB 
-----------------------------------------
  
RAS1 HF-like energy:           -391.6434280476
 Computing integrals
 Computing J and K matrices
 Computing addressing
 Making amplitude guesses
 
Direct CI diagonalization
 ---------------------------------------------------
 Iter    Rts Conv    Rts Left    Ttl Dev     Max Dev
 ---------------------------------------------------
   1         0          20      0.003556    0.000365
   2         0          20      0.003170    0.000265
   3         0          20      0.002939    0.000206
   4         0          20      0.003323    0.000294
   5         0          20      0.003739    0.000389
   6         0          20      0.003449    0.000322
   7         0          20      0.002420    0.000202
   8         0          20      0.002488    0.000239
   9         0          20      0.002325    0.000195
  10         0          20      0.002213    0.000183
  11         0          20      0.002139    0.000176
  12         0          20      0.001808    0.000153
  13         0          20      0.001637    0.000136
  14         0          20      0.001413    0.000144
  15         0          20      0.001330    0.000139
  16         0          20      0.001376    0.000150
  17         0          20      0.001201    0.000150
  18         0          20      0.001371    0.000124
  19         0          20      0.001402    0.000154
  20         0          20      0.001318    0.000141
  21         0          20      0.001134    0.000137
  22         0          20      0.001145    0.000155
  23         0          20      0.001193    0.000125
  24         0          20      0.001175    0.000147
  25         0          20      0.001190    0.000131
  26         0          20      0.000970    0.000100
  27         0          20      0.000825    0.000088
  28         0          20      0.000746    0.000117
  29         0          20      0.000641    0.000083
  30         0          20      0.000498    0.000071
  31         1          19      0.000493    0.000083
  32         1          19      0.000602    0.000125
  33         1          19      0.000628    0.000137
  34         2          18      0.000556    0.000104
  35         1          19      0.000435    0.000098
  36         2          18      0.000397    0.000080
  37         3          17      0.000353    0.000061
  38         4          16      0.000306    0.000067
  39         4          16      0.000331    0.000067
  40         5          15      0.000294    0.000059
  41         5          15      0.000256    0.000062
  42         5          15      0.000257    0.000060
  43         6          14      0.000220    0.000053
  44         7          13      0.000194    0.000046
  45         7          13      0.000161    0.000038
  46         7          13      0.000135    0.000030
  47        10          10      0.000111    0.000024
  48        10          10      0.000100    0.000023
  49        10          10      0.000094    0.000032
  50        11           9      0.000078    0.000028
  51        12           8      0.000064    0.000023
  52        12           8      0.000053    0.000019
  53        12           8      0.000043    0.000016
  54        14           6      0.000037    0.000014
  55        14           6      0.000031    0.000012
  56        14           6      0.000027    0.000011
  57        15           5      0.000024    0.000010
  58        15           5      0.000022    0.000009
  59        15           5      0.000019    0.000008
  60        15           5      0.000018    0.000007
  61        17           3      0.000016    0.000007
  62        17           3      0.000015    0.000006
  63        18           2      0.000013    0.000005
  64        19           1      0.000012    0.000004
  65        19           1      0.000011    0.000004
  66        19           1      0.000010    0.000003
  67        19           1      0.000009    0.000002
  68        19           1      0.000009    0.000002
  69        19           1      0.000008    0.000002
  70        19           1      0.000008    0.000001
  71        19           1      0.000008    0.000001
  72        19           1      0.000008    0.000001
  73        20           0      0.000008    0.000001    Roots Converged
 ---------------------------------------------------
   
**************************************************
 RAS-CI total energy for state   1:   -396.092462709017
  Excitation energy (eV) =  0.000000000000
  State symmetry: A"    (Cs       )
  <S^2>      :  2.0000
  Dipole Moment:    2.6012 X    -1.5707 Y     0.0000 Z
 NATURAL OCCUPATION NUMBERS (higher than 1.0E-05)
            1           2           3           4           5           6
    1   2.0000000   2.0000000   2.0000000   2.0000000   2.0000000   2.0000000
            7           8           9          10          11          12
    1   2.0000000   2.0000000   2.0000000   2.0000000   2.0000000   1.9999999
           13          14          15          16          17          18
    1   1.9999999   1.9999998   1.9999997   1.9999995   1.9999992   1.9999991
           19          20          21          22          23          24
    1   1.9999989   1.9999984   1.9999983   1.9999975   1.9999971   1.9999962
           25          26          27          28          29          30
    1   1.9999938   1.9999916   1.9999890   1.9999611   1.9999600   1.9999111
           31          32          33          34          35          36
    1   1.9998288   1.9991385   1.0506946   0.9875014   0.9871387   0.9479190
           37          38          39          40          41          42
    1   0.0100772   0.0095789   0.0029437   0.0029139   0.0007756   0.0007500
           43          44          45          46          47          48
    1   0.0005032   0.0002265   0.0000858   0.0000657   0.0000353   0.0000152
 Created directory ./qchem291410/plots

  Amplitudes : 
  
 | HOLE  | ALPHA      | BETA       | PART  |    AMPLITUDE 
--------------------------------------------------
 |       | 1100000100 | 1100000000 |  42   |    -1.7616536341445E-01
 |       | 1100000100 | 1100000000 |  43   |     1.2983200423875E-01
 |       | 1100000010 | 1100000000 |  42   |     2.9902130697821E-01
 |       | 1100000010 | 1100000000 |  43   |    -1.7453279500236E-01
 |       | 1010000100 | 1100000000 |  42   |     2.9363707820084E-01
 |       | 1010000100 | 1100000000 |  43   |    -2.1693479921705E-01
 |       | 1010000010 | 1100000000 |  42   |    -4.9983429185207E-01
 |       | 1010000010 | 1100000000 |  43   |     2.9358706569891E-01
 |       | 1010000010 | 1100000000 |  48   |     1.2191877291207E-01
 |       | 1100000010 | 1010000000 |  42   |    -1.5325544635605E-01
 |       | 1010000100 | 1010000000 |  42   |     1.5857855929851E-01
 |       | 1010000100 | 1010000000 |  43   |    -1.1732443196527E-01
 |       | 1010000010 | 1010000000 |  42   |    -2.7149173550701E-01
 |       | 1010000010 | 1010000000 |  43   |     1.5825589211684E-01
 |       | 1110000000 | 1000000100 |  42   |    -1.1196577283439E-01
 |       | 1110000000 | 1000000010 |  42   |     1.8181302549136E-01
 |       | 1110000000 | 1000000010 |  43   |    -1.0767158171713E-01
 |       | 1110000010 | 1000000000 |  42   |    -1.6476582000304E-01
--------------------------------------------------
*** Contributions RASCI wfn    Active:   0.35
                                 Hole:   0.04
                                 Part:  99.61

      Mulliken population analysis 
 ---------------------------------------------------
   Atom    Charge (a.u.)   Spin (a.u.)  
 ---------------------------------------------------
   1  C   -0.048300        0.013144 
   2  C    0.048445        0.043449 
   3  C   -0.018630        0.775059 
   4  C    0.003363       -0.006094 
   5  C   -0.031061        0.015057 
   6  C    0.055073       -0.462873 
   7  N   -0.199039        0.498011 
   8  C   -0.258110        0.675299 
   9  C   -0.003218        0.322544 
  10  C    0.329339        0.051074 
  11  H    0.016579        0.001174 
  12  H    0.105091        0.013099 
  13  H    0.050084        0.057278 
  14  H   -0.045484        0.003218 
  15  H    0.018298        0.004035 
  16  H    0.007541       -0.002286 
  17  H   -0.029970       -0.001187 
 ---------------------------------------------------
   Sum:    0.000000        2.000000 
 ---------------------------------------------------
 
  
 NATURAL OCCUPATION NUMBERS (higher than 1.0E-05)
            1           2           3           4           5           6
    1   2.0000000   2.0000000   2.0000000   2.0000000   2.0000000   2.0000000
            7           8           9          10          11          12
    1   2.0000000   2.0000000   2.0000000   2.0000000   2.0000000   1.9999999
           13          14          15          16          17          18
    1   1.9999999   1.9999998   1.9999997   1.9999995   1.9999992   1.9999991
           19          20          21          22          23          24
    1   1.9999989   1.9999984   1.9999983   1.9999975   1.9999971   1.9999962
           25          26          27          28          29          30
    1   1.9999938   1.9999916   1.9999890   1.9999611   1.9999600   1.9999111
           31          32          33          34          35          36
    1   1.9998288   1.9991385   1.0506946   0.9875014   0.9871387   0.9479190
           37          38          39          40          41          42
    1   0.0100772   0.0095789   0.0029437   0.0029139   0.0007756   0.0007500
           43          44          45          46          47          48
    1   0.0005032   0.0002265   0.0000858   0.0000657   0.0000353   0.0000152
  
*** Unpaired Electrons
 Yamaguchi Nd:         4.05
 Head-Gordon Nu:       3.90
 Head-Gordon Nu_nl:    3.99
  
**************************************************
 RAS-CI total energy for state   2:   -396.090858696433
  Excitation energy (eV) =  0.043647403122
  State symmetry: A"    (Cs       )
  <S^2>      :  2.0000
  Dipole Moment:    2.5838 X    -1.4957 Y    -0.0000 Z
  Trans. Moment:   -0.0017 X     0.0026 Y    -0.0000 Z
  Strength   :  0.000000
  Natural transition orbitals ( 1 -> 2 ):
   e-/hole pair  1 alpha:  ampl =  0.232985 (  5.4%)   [10 : 11]
   e-/hole pair  2 alpha:  ampl =  0.176733 (  3.1%)   [9 : 12]
   e-/hole pair  1 beta :  ampl =  0.232874 (  5.4%)   [10 : 11]
   e-/hole pair  2 beta :  ampl =  0.176932 (  3.1%)   [9 : 12]
   Sum of square amplitudes: 0.18

 NATURAL OCCUPATION NUMBERS (higher than 1.0E-05)
            1           2           3           4           5           6
    1   2.0000000   2.0000000   2.0000000   2.0000000   2.0000000   2.0000000
            7           8           9          10          11          12
    1   2.0000000   2.0000000   2.0000000   2.0000000   2.0000000   1.9999999
           13          14          15          16          17          18
    1   1.9999999   1.9999998   1.9999997   1.9999995   1.9999992   1.9999991
           19          20          21          22          23          24
    1   1.9999989   1.9999987   1.9999983   1.9999974   1.9999973   1.9999964
           25          26          27          28          29          30
    1   1.9999935   1.9999920   1.9999908   1.9999624   1.9999578   1.9999085
           31          32          33          34          35          36
    1   1.9998249   1.9991272   1.0187864   0.9907347   0.9848204   0.9747627
           37          38          39          40          41          42
    1   0.0120466   0.0108627   0.0031112   0.0030552   0.0011226   0.0008904
           43          44          45          46          47          48
    1   0.0005063   0.0003003   0.0000914   0.0000697   0.0000388   0.0000325

  Amplitudes : 
  
 | HOLE  | ALPHA      | BETA       | PART  |    AMPLITUDE 
--------------------------------------------------
 |       | 1100000010 | 1100000000 |  42   |     1.3793419209123E-01
 |       | 1010000010 | 1100000000 |  42   |     1.0464369546003E-01
 |       | 1100000100 | 1010000000 |  42   |     2.1869657468120E-01
 |       | 1100000100 | 1010000000 |  43   |    -1.6968819375181E-01
 |       | 1100000010 | 1010000000 |  42   |    -4.0611542770162E-01
 |       | 1100000010 | 1010000000 |  43   |     2.3517924970064E-01
 |       | 1100000010 | 1010000000 |  48   |     1.0011178043306E-01
 |       | 1010000010 | 1010000000 |  42   |    -1.2531270319870E-01
 |       | 1110000100 | 1000000000 |  42   |    -3.1137009243463E-01
 |       | 1110000100 | 1000000000 |  43   |     2.4583190322178E-01
 |       | 1110000010 | 1000000000 |  42   |     5.3210179601598E-01
 |       | 1110000010 | 1000000000 |  43   |    -3.2500612408536E-01
 |       | 1110000010 | 1000000000 |  48   |    -1.3784550381058E-01
--------------------------------------------------
*** Contributions RASCI wfn    Active:   0.37
                                 Hole:   0.04
                                 Part:  99.59

      Mulliken population analysis 
 ---------------------------------------------------
   Atom    Charge (a.u.)   Spin (a.u.)  
 ---------------------------------------------------
   1  C   -0.048580        0.002405 
   2  C    0.049414        0.061849 
   3  C   -0.016794        0.268169 
   4  C    0.003294        0.018984 
   5  C   -0.030960        0.001482 
   6  C    0.054570        0.948518 
   7  N   -0.206090       -0.103991 
   8  C   -0.253167        0.718900 
   9  C   -0.003417        0.090811 
  10  C    0.328665       -0.004044 
  11  H    0.016578        0.000350 
  12  H    0.105821       -0.001815 
  13  H    0.049897       -0.011579 
  14  H   -0.045497        0.000169 
  15  H    0.018583        0.001123 
  16  H    0.007741        0.005226 
  17  H   -0.030058        0.003441 
 ---------------------------------------------------
   Sum:    0.000000        2.000000 
 ---------------------------------------------------
 
  
 NATURAL OCCUPATION NUMBERS (higher than 1.0E-05)
            1           2           3           4           5           6
    1   2.0000000   2.0000000   2.0000000   2.0000000   2.0000000   2.0000000
            7           8           9          10          11          12
    1   2.0000000   2.0000000   2.0000000   2.0000000   2.0000000   1.9999999
           13          14          15          16          17          18
    1   1.9999999   1.9999998   1.9999997   1.9999995   1.9999992   1.9999991
           19          20          21          22          23          24
    1   1.9999989   1.9999987   1.9999983   1.9999974   1.9999973   1.9999964
           25          26          27          28          29          30
    1   1.9999935   1.9999920   1.9999908   1.9999624   1.9999578   1.9999085
           31          32          33          34          35          36
    1   1.9998249   1.9991272   1.0187864   0.9907347   0.9848204   0.9747627
           37          38          39          40          41          42
    1   0.0120466   0.0108627   0.0031112   0.0030552   0.0011226   0.0008904
           43          44          45          46          47          48
    1   0.0005063   0.0003003   0.0000914   0.0000697   0.0000388   0.0000325
  
*** Unpaired Electrons
 Yamaguchi Nd:         4.07
 Head-Gordon Nu:       3.96
 Head-Gordon Nu_nl:    4.00
  
**************************************************
 RAS-CI total energy for state   3:   -396.087947579988
  Excitation energy (eV) =  0.122862911961
  State symmetry: A"    (Cs       )
  <S^2>      :  2.0000
  Dipole Moment:    2.5115 X    -1.3930 Y     0.0000 Z
  Trans. Moment:   -0.0116 X     0.0068 Y    -0.0000 Z
  Strength   :  0.000001
  Natural transition orbitals ( 1 -> 3 ):
   e-/hole pair  1 alpha:  ampl =  0.211499 (  4.5%)   [10 : 11]
   e-/hole pair  2 alpha:  ampl =  0.169675 (  2.9%)   [9 : 12]
   e-/hole pair  1 beta :  ampl =  0.211849 (  4.5%)   [10 : 11]
   e-/hole pair  2 beta :  ampl =  0.169666 (  2.9%)   [9 : 12]
   Sum of square amplitudes: 0.16

 NATURAL OCCUPATION NUMBERS (higher than 1.0E-05)
            1           2           3           4           5           6
    1   2.0000000   2.0000000   2.0000000   2.0000000   2.0000000   2.0000000
            7           8           9          10          11          12
    1   2.0000000   2.0000000   2.0000000   2.0000000   2.0000000   1.9999999
           13          14          15          16          17          18
    1   1.9999999   1.9999998   1.9999997   1.9999995   1.9999992   1.9999991
           19          20          21          22          23          24
    1   1.9999987   1.9999984   1.9999983   1.9999978   1.9999975   1.9999965
           25          26          27          28          29          30
    1   1.9999929   1.9999921   1.9999887   1.9999645   1.9999630   1.9999113
           31          32          33          34          35          36
    1   1.9998299   1.9991929   1.0058667   0.9937771   0.9805339   0.9805230
           37          38          39          40          41          42
    1   0.0152220   0.0139052   0.0040406   0.0039974   0.0012232   0.0010446
           43          44          45          46          47          48
    1   0.0005294   0.0002630   0.0000922   0.0000713   0.0000373   0.0000283

  Amplitudes : 
  
 | HOLE  | ALPHA      | BETA       | PART  |    AMPLITUDE 
--------------------------------------------------
 |       | 1100000010 | 1100000000 |  42   |     1.1146739626171E-01
 |       | 1100000100 | 1010000000 |  42   |     1.3762768936281E-01
 |       | 1100000100 | 1010000000 |  43   |    -1.1558494143717E-01
 |       | 1100000010 | 1010000000 |  42   |    -3.0783692649472E-01
 |       | 1100000010 | 1010000000 |  43   |     1.7147342998287E-01
 |       | 1010000010 | 1010000000 |  42   |    -1.0118685501442E-01
 |       | 1110000000 | 1000000100 |  42   |     3.0171989395849E-01
 |       | 1110000000 | 1000000100 |  43   |    -2.5550464243954E-01
 |       | 1110000000 | 1000000010 |  42   |    -5.8727845023348E-01
 |       | 1110000000 | 1000000010 |  43   |     3.5272011585369E-01
 |       | 1110000000 | 1000000010 |  48   |     1.5441694213903E-01
 |       | 1110000100 | 1000000000 |  42   |     1.3019128552045E-01
 |       | 1110000100 | 1000000000 |  43   |    -1.1441482546758E-01
 |       | 1110000010 | 1000000000 |  42   |    -2.1521225613072E-01
 |       | 1110000010 | 1000000000 |  43   |     1.4491460655423E-01
--------------------------------------------------
*** Contributions RASCI wfn    Active:   0.38
                                 Hole:   0.04
                                 Part:  99.58

      Mulliken population analysis 
 ---------------------------------------------------
   Atom    Charge (a.u.)   Spin (a.u.)  
 ---------------------------------------------------
   1  C   -0.049537        0.010970 
   2  C    0.049078        0.015471 
   3  C   -0.005120        0.527117 
   4  C   -0.000337        0.011456 
   5  C   -0.031845        0.005251 
   6  C    0.054713        0.955427 
   7  N   -0.210222        0.445262 
   8  C   -0.244958       -0.216067 
   9  C   -0.010036        0.127459 
  10  C    0.325536        0.039034 
  11  H    0.016477        0.000735 
  12  H    0.105965        0.011389 
  13  H    0.049950        0.050672 
  14  H   -0.045724        0.002918 
  15  H    0.018465        0.003435 
  16  H    0.007722        0.005495 
  17  H   -0.030127        0.003975 
 ---------------------------------------------------
   Sum:    0.000000        2.000000 
 ---------------------------------------------------
 
  
 NATURAL OCCUPATION NUMBERS (higher than 1.0E-05)
            1           2           3           4           5           6
    1   2.0000000   2.0000000   2.0000000   2.0000000   2.0000000   2.0000000
            7           8           9          10          11          12
    1   2.0000000   2.0000000   2.0000000   2.0000000   2.0000000   1.9999999
           13          14          15          16          17          18
    1   1.9999999   1.9999998   1.9999997   1.9999995   1.9999992   1.9999991
           19          20          21          22          23          24
    1   1.9999987   1.9999984   1.9999983   1.9999978   1.9999975   1.9999965
           25          26          27          28          29          30
    1   1.9999929   1.9999921   1.9999887   1.9999645   1.9999630   1.9999113
           31          32          33          34          35          36
    1   1.9998299   1.9991929   1.0058667   0.9937771   0.9805339   0.9805230
           37          38          39          40          41          42
    1   0.0152220   0.0139052   0.0040406   0.0039974   0.0012232   0.0010446
           43          44          45          46          47          48
    1   0.0005294   0.0002630   0.0000922   0.0000713   0.0000373   0.0000283
  
*** Unpaired Electrons
 Yamaguchi Nd:         4.08
 Head-Gordon Nu:       3.99
 Head-Gordon Nu_nl:    4.00
  
**************************************************
 RAS-CI total energy for state   4:   -396.058672681054
  Excitation energy (eV) =  0.919473442221
  State symmetry: A'    (Cs       )
  <S^2>      :  2.0000
  Dipole Moment:    0.9142 X    -2.0115 Y    -0.0000 Z
  Trans. Moment:    0.0000 X    -0.0000 Y     0.0119 Z
  Strength   :  0.000003
  Natural transition orbitals ( 1 -> 4 ):
   e-/hole pair  1 alpha:  ampl =  0.892801 ( 79.7%)   [10 : 11]
   e-/hole pair  2 alpha:  ampl =  0.043738 (  0.2%)   [9 : 12]
   e-/hole pair  1 beta :  ampl =  0.044264 (  0.2%)   [10 : 11]
   e-/hole pair  2 beta :  ampl =  0.006020 (  0.0%)   [9 : 12]
   Sum of square amplitudes: 0.80

 NATURAL OCCUPATION NUMBERS (higher than 1.0E-05)
            1           2           3           4           5           6
    1   2.0000000   2.0000000   2.0000000   2.0000000   2.0000000   2.0000000
            7           8           9          10          11          12
    1   2.0000000   2.0000000   2.0000000   2.0000000   1.9999999   1.9999992
           13          14          15          16          17          18
    1   1.9999985   1.9999981   1.9999954   1.9999945   1.9999909   1.9999866
           19          20          21          22          23          24
    1   1.9999810   1.9999728   1.9999659   1.9999559   1.9999544   1.9999399
           25          26          27          28          29          30
    1   1.9999062   1.9998364   1.9998299   1.9998041   1.9995935   1.9979297
           31          32          33          34          35          36
    1   1.9955201   1.9937295   1.0617643   0.9570062   0.9472267   0.9369075
           37          38          39          40          41          42
    1   0.0529267   0.0428210   0.0069624   0.0056028   0.0009398   0.0007672
           43          44          45          46          47          48
    1   0.0004332   0.0002836   0.0001367   0.0000992   0.0000837   0.0000574
           49          50          51
    1   0.0000348   0.0000220   0.0000173

  Amplitudes : 
  
 | HOLE  | ALPHA      | BETA       | PART  |    AMPLITUDE 
--------------------------------------------------
 |       | 1110000100 | 1000000010 |       |    -1.2155359085585E-01
 |       | 1110000010 | 1000000100 |       |     1.1347324064825E-01
 |       | 1100000110 | 1100000000 |       |     2.4571580827486E-01
 |       | 1100000110 | 1010000000 |       |    -1.4356392518860E-01
 |       | 1010000110 | 1100000000 |       |    -3.7859075669381E-01
 |       | 1010000110 | 1010000000 |       |    -2.1299293280851E-01
 |       | 1100000100 | 1100000000 |  44   |     2.3933488883213E-01
 |       | 1100000010 | 1100000000 |  44   |    -1.8660929493064E-01
 |       | 1100000010 | 1100000000 |  47   |    -1.6945602044239E-01
 |       | 1010000100 | 1100000000 |  44   |    -3.7807516945796E-01
 |       | 1010000010 | 1100000000 |  44   |     2.9673151118577E-01
 |       | 1010000010 | 1100000000 |  47   |     2.6775089367096E-01
 |       | 1100000100 | 1010000000 |  44   |    -1.3737474910860E-01
 |       | 1100000010 | 1010000000 |  44   |     1.0866837726733E-01
 |       | 1100000010 | 1010000000 |  47   |     1.0194958693462E-01
 |       | 1010000100 | 1010000000 |  44   |    -2.1524160603089E-01
 |       | 1010000010 | 1010000000 |  44   |     1.6938160138491E-01
 |       | 1010000010 | 1010000000 |  47   |     1.5279151018811E-01
 |       | 1110000000 | 1000000100 |  44   |     1.2478705602601E-01
 |       | 1110000000 | 1000000010 |  44   |    -1.0266358474769E-01
 |       | 1110000100 | 1000000000 |  44   |    -1.1591336432169E-01
--------------------------------------------------
*** Contributions RASCI wfn    Active:  31.27
                                 Hole:   1.51
                                 Part:  67.22

      Mulliken population analysis 
 ---------------------------------------------------
   Atom    Charge (a.u.)   Spin (a.u.)  
 ---------------------------------------------------
   1  C   -0.039884        0.005806 
   2  C    0.054669        0.036711 
   3  C   -0.015104        0.698220 
   4  C    0.004546       -0.023827 
   5  C   -0.045967        0.048988 
   6  C    0.053925       -0.436800 
   7  N    0.355955        0.000753 
   8  C   -0.297882        0.755875 
   9  C    0.237842        0.083423 
  10  C   -0.489536        0.832153 
  11  H    0.014221       -0.000009 
  12  H    0.124438        0.000189 
  13  H    0.100486       -0.001096 
  14  H   -0.046989       -0.002187 
  15  H    0.015774        0.004623 
  16  H    0.004869       -0.002971 
  17  H   -0.031364        0.000150 
 ---------------------------------------------------
   Sum:    0.000000        2.000000 
 ---------------------------------------------------
 
  
 NATURAL OCCUPATION NUMBERS (higher than 1.0E-05)
            1           2           3           4           5           6
    1   2.0000000   2.0000000   2.0000000   2.0000000   2.0000000   2.0000000
            7           8           9          10          11          12
    1   2.0000000   2.0000000   2.0000000   2.0000000   1.9999999   1.9999992
           13          14          15          16          17          18
    1   1.9999985   1.9999981   1.9999954   1.9999945   1.9999909   1.9999866
           19          20          21          22          23          24
    1   1.9999810   1.9999728   1.9999659   1.9999559   1.9999544   1.9999399
           25          26          27          28          29          30
    1   1.9999062   1.9998364   1.9998299   1.9998041   1.9995935   1.9979297
           31          32          33          34          35          36
    1   1.9955201   1.9937295   1.0617643   0.9570062   0.9472267   0.9369075
           37          38          39          40          41          42
    1   0.0529267   0.0428210   0.0069624   0.0056028   0.0009398   0.0007672
           43          44          45          46          47          48
    1   0.0004332   0.0002836   0.0001367   0.0000992   0.0000837   0.0000574
           49          50          51
    1   0.0000348   0.0000220   0.0000173
  
*** Unpaired Electrons
 Yamaguchi Nd:         4.23
 Head-Gordon Nu:       3.90
 Head-Gordon Nu_nl:    3.99
  
**************************************************
 RAS-CI total energy for state   5:   -396.056188981702
  Excitation energy (eV) =  0.987058340210
  State symmetry: A'    (Cs       )
  <S^2>      :  2.0000
  Dipole Moment:    0.7862 X    -1.9197 Y     0.0000 Z
  Trans. Moment:   -0.0000 X     0.0000 Y    -0.0008 Z
  Strength   :  0.000000
  Natural transition orbitals ( 1 -> 5 ):
   e-/hole pair  1 alpha:  ampl =  0.074427 (  0.6%)   [10 : 11]
   e-/hole pair  2 alpha:  ampl =  0.001347 (  0.0%)   [9 : 12]
   e-/hole pair  1 beta :  ampl =  0.136387 (  1.9%)   [10 : 11]
   e-/hole pair  2 beta :  ampl =  0.002886 (  0.0%)   [9 : 12]
   Sum of square amplitudes: 0.02

 NATURAL OCCUPATION NUMBERS (higher than 1.0E-05)
            1           2           3           4           5           6
    1   2.0000000   2.0000000   2.0000000   2.0000000   2.0000000   2.0000000
            7           8           9          10          11          12
    1   2.0000000   2.0000000   2.0000000   2.0000000   1.9999999   1.9999990
           13          14          15          16          17          18
    1   1.9999983   1.9999978   1.9999952   1.9999934   1.9999906   1.9999862
           19          20          21          22          23          24
    1   1.9999806   1.9999703   1.9999688   1.9999590   1.9999539   1.9999336
           25          26          27          28          29          30
    1   1.9998870   1.9998511   1.9998057   1.9998028   1.9995971   1.9979599
           31          32          33          34          35          36
    1   1.9976230   1.9939971   1.0131272   0.9853939   0.9626299   0.9433442
           37          38          39          40          41          42
    1   0.0508056   0.0422454   0.0067210   0.0036843   0.0012822   0.0010115
           43          44          45          46          47          48
    1   0.0004159   0.0004082   0.0003070   0.0001225   0.0000934   0.0000457
           49          50          51
    1   0.0000326   0.0000247   0.0000199

  Amplitudes : 
  
 | HOLE  | ALPHA      | BETA       | PART  |    AMPLITUDE 
--------------------------------------------------
 |       | 1110000100 | 1000000100 |       |     1.1450811259084E-01
 |       | 1110000100 | 1000000010 |       |     1.9616029105453E-01
 |       | 1110000010 | 1000000100 |       |    -2.8607700507887E-01
 |       | 1100000110 | 1100000000 |       |     1.1693322875081E-01
 |       | 1100000110 | 1010000000 |       |    -3.6533087606812E-01
 |       | 1010000110 | 1100000000 |       |     1.1690642006802E-01
 |       | 1010000110 | 1010000000 |       |    -1.0125734721236E-01
 |       | 1100000100 | 1100000000 |  44   |     1.0565971323057E-01
 |       | 1010000100 | 1100000000 |  44   |     1.1616038882285E-01
 |       | 1100000100 | 1010000000 |  44   |    -3.4357363338218E-01
 |       | 1100000010 | 1010000000 |  44   |     2.8218090457264E-01
 |       | 1100000010 | 1010000000 |  47   |     2.6176586454311E-01
 |       | 1110000000 | 1000000100 |  44   |    -1.7584484431954E-01
 |       | 1110000000 | 1000000010 |  47   |     1.2285934488597E-01
 |       | 1110000100 | 1000000000 |  44   |     2.8388917788171E-01
 |       | 1110000010 | 1000000000 |  44   |    -2.7955933187902E-01
 |       | 1110000010 | 1000000000 |  47   |    -2.2233875470900E-01
--------------------------------------------------
*** Contributions RASCI wfn    Active:  32.62
                                 Hole:   1.26
                                 Part:  66.12

      Mulliken population analysis 
 ---------------------------------------------------
   Atom    Charge (a.u.)   Spin (a.u.)  
 ---------------------------------------------------
   1  C   -0.040344       -0.004333 
   2  C    0.052747        0.061850 
   3  C   -0.006217       -0.007436 
   4  C    0.004871        0.028520 
   5  C   -0.045825       -0.009496 
   6  C    0.053485        0.921960 
   7  N    0.355882        0.000369 
   8  C   -0.295229        0.728597 
   9  C    0.237272        0.058433 
  10  C   -0.498848        0.217244 
  11  H    0.014345       -0.000547 
  12  H    0.124281        0.000087 
  13  H    0.100309       -0.000407 
  14  H   -0.047068        0.000159 
  15  H    0.016516       -0.000623 
  16  H    0.005481        0.005675 
  17  H   -0.031657       -0.000050 
 ---------------------------------------------------
   Sum:    0.000000        2.000000 
 ---------------------------------------------------
 
  
 NATURAL OCCUPATION NUMBERS (higher than 1.0E-05)
            1           2           3           4           5           6
    1   2.0000000   2.0000000   2.0000000   2.0000000   2.0000000   2.0000000
            7           8           9          10          11          12
    1   2.0000000   2.0000000   2.0000000   2.0000000   1.9999999   1.9999990
           13          14          15          16          17          18
    1   1.9999983   1.9999978   1.9999952   1.9999934   1.9999906   1.9999862
           19          20          21          22          23          24
    1   1.9999806   1.9999703   1.9999688   1.9999590   1.9999539   1.9999336
           25          26          27          28          29          30
    1   1.9998870   1.9998511   1.9998057   1.9998028   1.9995971   1.9979599
           31          32          33          34          35          36
    1   1.9976230   1.9939971   1.0131272   0.9853939   0.9626299   0.9433442
           37          38          39          40          41          42
    1   0.0508056   0.0422454   0.0067210   0.0036843   0.0012822   0.0010115
           43          44          45          46          47          48
    1   0.0004159   0.0004082   0.0003070   0.0001225   0.0000934   0.0000457
           49          50          51
    1   0.0000326   0.0000247   0.0000199
  
*** Unpaired Electrons
 Yamaguchi Nd:         4.23
 Head-Gordon Nu:       4.00
 Head-Gordon Nu_nl:    4.01
  
**************************************************
 RAS-CI total energy for state   6:   -396.052204093108
  Excitation energy (eV) =  1.095492675809
  State symmetry: A'    (Cs       )
  <S^2>      :  2.0000
  Dipole Moment:    0.4704 X    -1.7200 Y    -0.0000 Z
  Trans. Moment:   -0.0000 X    -0.0000 Y     0.0002 Z
  Strength   :  0.000000
  Natural transition orbitals ( 1 -> 6 ):
   e-/hole pair  1 alpha:  ampl =  0.143455 (  2.1%)   [10 : 11]
   e-/hole pair  2 alpha:  ampl =  0.010572 (  0.0%)   [9 : 12]
   e-/hole pair  1 beta :  ampl =  0.129985 (  1.7%)   [10 : 11]
   e-/hole pair  2 beta :  ampl =  0.009713 (  0.0%)   [9 : 12]
   Sum of square amplitudes: 0.04

 NATURAL OCCUPATION NUMBERS (higher than 1.0E-05)
            1           2           3           4           5           6
    1   2.0000000   2.0000000   2.0000000   2.0000000   2.0000000   2.0000000
            7           8           9          10          11          12
    1   2.0000000   2.0000000   2.0000000   2.0000000   1.9999999   1.9999987
           13          14          15          16          17          18
    1   1.9999976   1.9999954   1.9999928   1.9999893   1.9999865   1.9999787
           19          20          21          22          23          24
    1   1.9999709   1.9999616   1.9999512   1.9999386   1.9999266   1.9999223
           25          26          27          28          29          30
    1   1.9998914   1.9998430   1.9997914   1.9997538   1.9994197   1.9976632
           31          32          33          34          35          36
    1   1.9976173   1.9956382   1.0444576   1.0009777   0.9972612   0.8936253
           37          38          39          40          41          42
    1   0.0364113   0.0236267   0.0054231   0.0038369   0.0016450   0.0013668
           43          44          45          46          47          48
    1   0.0006871   0.0004770   0.0004327   0.0002131   0.0001232   0.0000578
           49          50          51          52
    1   0.0000336   0.0000317   0.0000262   0.0000183

  Amplitudes : 
  
 | HOLE  | ALPHA      | BETA       | PART  |    AMPLITUDE 
--------------------------------------------------
 |       | 1110000100 | 1000000100 |       |     4.5919147806771E-01
 |       | 1110000100 | 1000000010 |       |    -2.3206841992710E-01
 |       | 1110000010 | 1000000100 |       |    -1.0848486139724E-01
 |       | 1110000010 | 1000000010 |       |    -3.7264808619813E-01
 |       | 1100000110 | 1010000000 |       |     1.0156606619239E-01
 |       | 1110000000 | 1000000100 |  44   |     2.1003897152395E-01
 |       | 1110000000 | 1000000100 |  47   |     2.3823977322265E-01
 |       | 1110000000 | 1000000010 |  44   |    -3.9138566952369E-01
 |       | 1110000000 | 1000000010 |  47   |    -2.2872838112099E-01
 |       | 1110000100 | 1000000000 |  44   |     1.0347768992633E-01
 |       | 1110000100 | 1000000000 |  47   |     2.3112681495715E-01
 |       | 1110000010 | 1000000000 |  44   |    -2.9619096012113E-01
 |       | 1110000010 | 1000000000 |  47   |    -1.4018145262559E-01
--------------------------------------------------
*** Contributions RASCI wfn    Active:  43.72
                                 Hole:   1.18
                                 Part:  55.10

      Mulliken population analysis 
 ---------------------------------------------------
   Atom    Charge (a.u.)   Spin (a.u.)  
 ---------------------------------------------------
   1  C   -0.039563        0.014606 
   2  C    0.062369        0.013622 
   3  C    0.008042        0.879359 
   4  C    0.008074        0.005770 
   5  C   -0.044627        0.027537 
   6  C    0.056492        0.959820 
   7  N    0.355256        0.000417 
   8  C   -0.290500       -0.214577 
   9  C    0.250989       -0.007644 
  10  C   -0.541483        0.312091 
  11  H    0.014206        0.001038 
  12  H    0.123845        0.000006 
  13  H    0.099234       -0.000233 
  14  H   -0.050106       -0.004331 
  15  H    0.015932        0.007093 
  16  H    0.004579        0.006023 
  17  H   -0.032738       -0.000597 
 ---------------------------------------------------
   Sum:    0.000000        2.000000 
 ---------------------------------------------------
 
  
 NATURAL OCCUPATION NUMBERS (higher than 1.0E-05)
            1           2           3           4           5           6
    1   2.0000000   2.0000000   2.0000000   2.0000000   2.0000000   2.0000000
            7           8           9          10          11          12
    1   2.0000000   2.0000000   2.0000000   2.0000000   1.9999999   1.9999987
           13          14          15          16          17          18
    1   1.9999976   1.9999954   1.9999928   1.9999893   1.9999865   1.9999787
           19          20          21          22          23          24
    1   1.9999709   1.9999616   1.9999512   1.9999386   1.9999266   1.9999223
           25          26          27          28          29          30
    1   1.9998914   1.9998430   1.9997914   1.9997538   1.9994197   1.9976632
           31          32          33          34          35          36
    1   1.9976173   1.9956382   1.0444576   1.0009777   0.9972612   0.8936253
           37          38          39          40          41          42
    1   0.0364113   0.0236267   0.0054231   0.0038369   0.0016450   0.0013668
           43          44          45          46          47          48
    1   0.0006871   0.0004770   0.0004327   0.0002131   0.0001232   0.0000578
           49          50          51          52
    1   0.0000336   0.0000317   0.0000262   0.0000183
  
*** Unpaired Electrons
 Yamaguchi Nd:         4.16
 Head-Gordon Nu:       3.93
 Head-Gordon Nu_nl:    3.98
  
**************************************************
 RAS-CI total energy for state   7:   -396.045720720747
  Excitation energy (eV) =  1.271914213804
  State symmetry: A"    (Cs       )
  <S^2>      :  2.0000
  Dipole Moment:    3.6932 X     0.2067 Y    -0.0000 Z
  Trans. Moment:    0.7023 X    -0.6429 Y     0.0000 Z
  Strength   :  0.028249
  Natural transition orbitals ( 1 -> 7 ):
   e-/hole pair  1 alpha:  ampl =  0.708526 ( 50.2%)   [10 : 11]
   e-/hole pair  2 alpha:  ampl =  0.222526 (  5.0%)   [9 : 12]
   e-/hole pair  1 beta :  ampl =  0.020501 (  0.0%)   [10 : 11]
   e-/hole pair  2 beta :  ampl =  0.012769 (  0.0%)   [9 : 12]
   Sum of square amplitudes: 0.56

 NATURAL OCCUPATION NUMBERS (higher than 1.0E-05)
            1           2           3           4           5           6
    1   2.0000000   2.0000000   2.0000000   2.0000000   2.0000000   2.0000000
            7           8           9          10          11          12
    1   2.0000000   2.0000000   2.0000000   2.0000000   2.0000000   1.9999997
           13          14          15          16          17          18
    1   1.9999995   1.9999993   1.9999991   1.9999988   1.9999978   1.9999973
           19          20          21          22          23          24
    1   1.9999968   1.9999965   1.9999963   1.9999945   1.9999944   1.9999929
           25          26          27          28          29          30
    1   1.9999916   1.9999865   1.9999738   1.9999636   1.9999309   1.9998803
           31          32          33          34          35          36
    1   1.9996205   1.9892968   1.0650538   0.9336797   0.9260638   0.9244636
           37          38          39          40          41          42
    1   0.0672636   0.0563347   0.0129566   0.0104046   0.0048686   0.0041922
           43          44          45          46          47          48
    1   0.0025810   0.0016020   0.0013013   0.0003354   0.0001146   0.0000989
           49          50
    1   0.0000202   0.0000115

  Amplitudes : 
  
 | HOLE  | ALPHA      | BETA       | PART  |    AMPLITUDE 
--------------------------------------------------
 |       | 1100000100 | 1100000000 |  42   |    -3.8635962293622E-01
 |       | 1100000010 | 1100000000 |  42   |    -1.7851952897944E-01
 |       | 1010000100 | 1100000000 |  42   |     5.3008743757716E-01
 |       | 1010000010 | 1100000000 |  42   |     2.5462018273806E-01
 |       | 1010000010 | 1100000000 |  48   |    -1.1190548967701E-01
 |       | 1100000100 | 1010000000 |  42   |     3.0964165263897E-01
 |       | 1100000010 | 1010000000 |  42   |     1.4520757271697E-01
 |       | 1010000100 | 1010000000 |  42   |     3.4631968169258E-01
 |       | 1010000010 | 1010000000 |  42   |     1.6169279681619E-01
 |       | 1110000100 | 1000000000 |  42   |     1.6798355993457E-01
--------------------------------------------------
*** Contributions RASCI wfn    Active:   1.57
                                 Hole:   0.07
                                 Part:  98.36

      Mulliken population analysis 
 ---------------------------------------------------
   Atom    Charge (a.u.)   Spin (a.u.)  
 ---------------------------------------------------
   1  C   -0.030638        0.020291 
   2  C    0.021843        0.089467 
   3  C   -0.034716        0.493732 
   4  C   -0.025449        0.022255 
   5  C   -0.122755        0.098011 
   6  C   -0.023883       -0.204142 
   7  N    0.093943        0.243976 
   8  C    0.014707        0.423744 
   9  C    0.138448        0.213702 
  10  C   -0.144717        0.515180 
  11  H    0.009842        0.006829 
  12  H    0.081602        0.035153 
  13  H    0.072851        0.038347 
  14  H   -0.046400        0.002735 
  15  H    0.018113        0.002549 
  16  H    0.007229       -0.001312 
  17  H   -0.030020       -0.000516 
 ---------------------------------------------------
   Sum:    0.000000        2.000000 
 ---------------------------------------------------
 
  
 NATURAL OCCUPATION NUMBERS (higher than 1.0E-05)
            1           2           3           4           5           6
    1   2.0000000   2.0000000   2.0000000   2.0000000   2.0000000   2.0000000
[...]
    31   -2.026641740098e-04
    32   -4.519221137556e-03
    33   -1.041888354531e-02
    34    1.968830741524e-02
    35    2.823309241181e-02
    36    3.794586625569e-02
    37   -1.409323277518e-03
    38    1.338212474917e-02
    39    3.139050233150e-11
    40   -6.698620442834e-03
    41    1.700491738285e-02
    42    1.638251346090e-10
    43    2.274305590940e-02
    44    8.618922728030e-04
    45   -1.908574546847e-10
    46    9.813517481869e-04
    47   -6.494758557697e-12
    48   -1.826598296775e-12
    49   -7.697597490408e-04
    50    6.927459746605e-04
    51    9.466406771182e-04
    52    1.714691637405e-11
    53   -7.596656138844e-13
    54   -3.441347816367e-03
    55    6.032405086672e-04
    56   -6.381728760905e-13
    57   -1.489140742254e-04
    58    2.908964040780e-04
    59   -3.657326874597e-12
    60   -3.326391009241e-12
    61   -5.133085090426e-04
    62   -4.154166187528e-04
    63    5.086866574467e-03
    64    1.154063179306e-02
    65   -1.865586422335e-02
    66   -3.696207329022e-02
    67   -4.185488284232e-02
    68    7.501712568336e-03
    69    1.156259565799e-01
    70    2.122229336039e-10
    71    5.867892430006e-03
    72    1.071718917212e-01
    73    1.916948075733e-10
    74    1.930473319444e-02
    75    2.115912268040e-01
    76    3.332487919821e-10
    77   -2.856785874042e-04
    78   -1.139099166278e-12
    79   -2.376517989669e-12
    80   -1.555220573024e-04
    81   -1.113006160557e-03
    82    2.638378433836e-04
    83   -2.523842290020e-11
    84    1.937383141469e-11
    85    1.001952999560e-03
    86   -3.496568105943e-03
    87    5.859313710036e-13
    88    1.232588907109e-04
    89    1.125052746489e-03
    90    1.540956394193e-12
    91   -2.725849534113e-12
    92    2.419970343140e-04
    93    3.219957276528e-04
    94    4.678977993450e-04
    95    9.463037694965e-04
    96   -8.751040209822e-04
    97   -2.052670813296e-02
    98    2.055987548597e-02
    99    1.621652898328e-01
   100   -1.656417778984e-01
   101   -2.281732720447e-10
   102    1.483877159198e-01
   103   -1.514184702790e-01
   104   -1.976850505016e-10
   105    2.895389751939e-01
   106   -2.998681207686e-01
   107   -3.308703956128e-10
   108   -6.504834266535e-04
   109   -2.689598147305e-12
   110   -3.897171947994e-12
   111   -1.136889860721e-03
   112    7.575700147079e-04
   113   -3.062045325687e-03
   114   -3.436230100464e-12
   115   -9.795248082342e-12
   116   -1.135291968785e-03
   117   -4.154641152092e-03
   118   -2.663290673658e-12
   119    1.923746704694e-03
   120   -2.101419527386e-03
   121    1.149400129442e-12
   122    2.082824439771e-13
   123   -3.861269951867e-04
   124   -4.519436090029e-04
   125    6.147875243902e-04
   126    1.434377459608e-03
   127   -2.021093819401e-03
   128    6.070496123895e-03
   129   -1.965543891534e-02
   130   -1.689255060192e-01
   131   -1.720845875983e-01
   132   -4.263562523943e-10
   133   -1.527665394755e-01
   134   -1.567194978972e-01
   135   -3.583305326110e-10
   136   -3.102831111240e-01
   137   -3.138094302369e-01
   138   -6.562141740225e-10
   139    5.541623427815e-04
   140   -2.481741452317e-12
   141    1.814822873273e-12
   142    1.049001258395e-03
   143    1.043589012532e-03
   144    2.697826783728e-03
   145    3.964679694485e-12
   146    4.366502934878e-12
   147    1.751879153883e-03
   148   -3.612380916822e-03
   149   -5.383607909682e-12
   150   -1.990172867771e-03
   151   -2.193568243005e-03
   152    4.791658746870e-13
   153   -1.298947185818e-13
   154    4.398160840357e-04
   155   -5.244244693650e-04
   156   -2.912145781483e-03
   157   -6.610619630749e-03
   158    1.042251714757e-02
   159    1.892256337398e-02
   160    2.755858815757e-02
   161   -2.585538587949e-03
   162    1.161952312998e-01
   163   -3.107707201228e-10
   164   -3.873806392980e-04
   165    1.090299982876e-01
   166   -2.990548630634e-10
   167   -1.693378757007e-02
   168    2.128219604426e-01
   169   -4.224183892842e-10
   170   -4.592581513391e-05
   171   -9.114884859952e-13
   172    2.196178029497e-13
   173    3.661252033096e-04
   174   -7.266701148256e-04
   175   -6.749622320185e-04
   176   -1.073769309590e-11
   177   -5.021763371227e-13
   178   -9.926660964484e-04
   179   -3.474750525643e-03
   180   -3.844982119166e-12
   181   -2.953161725864e-05
   182    1.276932957944e-03
   183   -9.862734781606e-13
   184    8.334951224146e-13
   185   -3.642500395975e-04
   186    3.333162950104e-04
   187    6.521876994756e-04
   188    1.449608303082e-03
   189   -9.699448590462e-04
   190   -9.850027515501e-03
   191    6.047013919232e-03
   192   -4.288534821077e-02
   193    4.595036646367e-02
   194    8.985628447135e-10
   195   -3.872128128162e-02
   196    3.928399356979e-02
   197    7.820185603497e-10
   198   -5.144124948895e-02
   199    6.826627899913e-02
   200    8.681813940759e-10
   201    4.338608906426e-05
   202    1.877130420368e-11
   203    8.631483266301e-12
   204    7.106602598660e-05
   205    2.333351754206e-04
   206   -2.124231114748e-04
   207    6.004461037181e-11
   208    3.932512228927e-11
   209    6.418637505624e-04
   210   -5.385836260010e-04
   211   -7.378481600304e-12
   212    5.480380030591e-04
   213   -7.105102649963e-04
   214   -4.486794955225e-12
   215   -1.114469910619e-11
   216    6.075457699952e-04
   217    1.029584753121e-04
   218    2.026569226713e-03
   219    4.663601920375e-03
   220   -8.648820648231e-03
   221   -5.273008287897e-03
   222   -3.866687902650e-02
   223    5.882575065194e-03
   224    8.164075836746e-02
   225   -3.554708711994e-09
   226    4.360613929736e-03
   227    7.633475079187e-02
   228   -2.946600377256e-09
   229    1.760245318428e-03
   230    1.372753829769e-01
   231   -5.247255407792e-09
   232   -1.543314571482e-04
   233    5.815389142913e-11
   234   -5.339991297343e-12
   235   -4.403493770882e-04
   236   -2.011141474415e-04
   237    1.222350424198e-03
   238    1.694446091511e-10
   239   -7.326943688571e-11
   240    4.247175611922e-04
   241   -5.449320981982e-04
   242   -3.587254106004e-11
   243    1.059806556487e-04
   244    8.889380172878e-04
   245    2.513776312006e-13
   246    1.731275030758e-11
   247    6.219653516568e-07
   248   -2.345552371930e-04
   249    6.821629573785e-04
   250    1.497990305753e-03
   251   -2.090947779244e-03
   252   -1.831415116671e-02
   253    2.411788338120e-02
   254   -5.720100206726e-02
   255   -4.060834207922e-02
   256   -1.021885629838e-08
   257   -5.165176872744e-02
   258   -3.764838602132e-02
   259   -8.830127389819e-09
   260   -9.991638915852e-02
   261   -5.974696132118e-02
   262   -1.464285233486e-08
   263   -2.835201181680e-04
   264    7.751669735995e-12
   265    3.851726736232e-11
   266   -5.437189225878e-04
   267   -1.478021308471e-04
   268   -2.422532846720e-03
   269    9.645733528592e-12
   270   -8.266879800353e-11
   271   -3.108808944425e-05
   272    6.838391276743e-04
   273   -1.284164875708e-10
   274   -7.126564256973e-04
   275   -5.345210195481e-04
   276    1.021677704310e-11
   277    4.899324056309e-12
   278    4.440491478547e-05
   279   -2.234745017461e-04
   280    1.431770129673e-03
   281    3.229812397849e-03
   282   -4.981392993974e-03
   283   -7.542117852458e-03
   284   -1.735402240302e-02
   285    3.329161770274e-02
   286   -5.618207643760e-02
   287   -6.705562015595e-09
   288    3.180883792746e-02
   289   -5.799725949212e-02
   290   -5.714224988553e-09
   291    5.618744837659e-02
   292   -7.102430355552e-02
   293   -9.471082571360e-09
   294   -5.185251830234e-06
   295    5.851052608131e-12
   296    7.901707309509e-12
   297    9.432173432202e-04
   298    1.198346749724e-04
   299    1.197782945661e-03
   300    1.132641761221e-10
   301    1.835590301295e-10
   302   -4.331939039885e-04
   303    2.476177719430e-03
   304   -8.173661189726e-11
   305    3.457768755903e-04
   306   -7.519471764146e-04
   307    1.648781211242e-11
   308    5.291949690323e-12
   309   -2.087205896161e-04
   310   -1.044581630327e-04
   311    2.615187944671e-02
   312    2.383066596162e-02
   313    1.955060633664e-01
   314   -7.186907899964e-05
   315   -3.558645551221e-03
   316   -5.620195937346e-11
   317   -1.955946617671e-02
   318   -2.119262829399e-02
   319   -1.486622215880e-01
   320    2.547105400070e-03
   321    9.961143161721e-04
   322   -1.695770880395e-10
   323    1.761064815199e-02
   324    1.400226390511e-02
   325    1.312121907404e-01
   326   -2.703676666999e-03
   327    1.175568155075e-03
   328   -1.090383113241e-10
   329    3.706876011098e-02
   330    3.406957404118e-02
   331    2.844078948294e-01
   332    8.434339997264e-04
   333   -4.682310719333e-03
   334    2.575869021311e-12
   335   -6.440335965871e-02
   336   -7.071659007950e-02
   337   -4.872840769596e-01
   338   -8.371565254000e-03
   339    3.378075894206e-03
   340   -3.818141660033e-12
   341    6.848024574486e-02
   342    7.395439103009e-02
   343    5.200225853749e-01
   344    8.594077746034e-03
   345    3.787418403109e-03
   346   -6.986172123194e-12
   347   -3.520788067754e-02
   348   -3.479815115380e-02
   349   -2.725208006884e-01
   350   -4.358586590741e-04
   351   -4.680020029305e-03
   352   -5.544978115306e-12
Sym=X
Ene= 0.075348
Spin=Alpha
Occup=0
     1    2.415033499364e-03
     2    5.491011413800e-03
     3   -8.956075318446e-03
     4   -2.405552722540e-02
     5    2.888305133326e-03
     6   -5.911349667452e-02
     7    5.079603906572e-02
     8   -2.695487108270e-09
     9   -5.277959215272e-02
    10    4.921517720683e-02
    11   -2.839040736484e-09
    12   -1.214727192929e-01
    13    8.330191701703e-02
    14   -2.258802550108e-09
    15   -2.102994387373e-05
    16   -4.159407725055e-11
    17   -2.442322987418e-11
    18   -1.675610299594e-04
    19   -7.190188453909e-04
    20   -1.453610213048e-03
    21   -1.459031122869e-10
    22   -1.010454837243e-11
    23   -4.175974422821e-04
    24   -4.784473245802e-03
    25    5.493812063392e-11
    26    1.269791845928e-03
    27   -1.076292272240e-03
    28    1.144178750581e-11
    29    1.001898497710e-11
    30    1.001386690812e-03
    31    2.497299677598e-05
    32   -7.531766729170e-03
    33   -1.690710744837e-02
    34    2.546594741543e-02
    35    7.685558356895e-02
    36   -1.939637561175e-02
    37   -1.978044512042e-01
    38    6.446046702677e-04
    39    9.757153260415e-10
    40   -1.929451417748e-01
    41   -3.757657672634e-03
    42    4.720057658356e-10
    43   -3.008403529695e-01
    44   -2.572249581881e-02
    45    2.153678954419e-09
    46    1.979610848681e-03
    47    2.602429349923e-11
    48    1.197114131489e-11
    49   -1.712413383019e-03
    50    4.125933488656e-03
    51    2.081017680739e-03
    52    6.020463430235e-12
    53    3.132474226416e-11
    54   -2.725652953690e-03
    55    1.129909771710e-02
    56    1.182056262415e-11
    57   -2.247066008899e-03
    58    1.048809474085e-03
    59    1.393169442290e-11
    60    2.930051199727e-11
    61    3.035941699527e-04
    62   -4.032028385918e-03
    63   -1.350418465535e-03
    64   -2.950874603272e-03
    65    3.422457040345e-03
    66    2.503785772258e-02
    67   -1.445778250337e-02
    68   -2.201348149678e-02
    69    6.149893745871e-02
    70    6.153312537803e-10
    71   -2.091073168048e-02
    72    6.105970417291e-02
    73    4.557347630699e-10
    74   -3.830998978238e-02
    75    1.021942236911e-01
    76    9.453849719361e-10
    77    4.061017810827e-04
    78    1.903689862749e-11
    79    6.612090159276e-12
    80   -1.089799195125e-03
    81    8.645677909733e-04
    82    1.437569767186e-03
    83    1.185011983543e-10
    84   -1.883957011061e-11
    85   -1.467607035697e-03
    86    2.495575872788e-03
    87    8.573547059878e-12
    88   -2.568239781421e-04
    89    6.780121845244e-04
    90   -9.703839115623e-13
    91    1.104574058245e-11
    92   -2.916808204766e-05
    93    5.209657847541e-05
    94   -2.856042986354e-04
    95   -5.877486680509e-04
    96    2.052105097977e-04
    97    3.775403445765e-03
    98    6.519377171367e-03
    99    5.102864787882e-03
   100    7.443629176178e-03
   101    4.377628984588e-09
   102    3.236016144236e-03
   103    6.386511910316e-03
   104    3.717880369863e-09
   105    7.304913811371e-03
   106    1.604028524989e-02
   107    6.447437449112e-09
   108    7.647971644619e-05
   109    3.233943386033e-11
   110    4.141148899855e-11
   111    5.515084020445e-04
   112    2.537539163040e-04
   113   -4.214991371515e-04
   114    1.428165297927e-11
   115    1.228522418860e-10
   116    2.332335839364e-03
   117    5.129456474506e-04
   118    5.308794635202e-11
   119    8.148981928288e-05
   120    1.130764981547e-04
   121   -1.323505888499e-11
   122   -3.301409750554e-12
   123   -1.258818364998e-04
   124   -1.614029709291e-05
   125    4.513932367323e-05
   126    2.037804975026e-04
   127   -1.951235123886e-03
   128    2.016052943043e-03
   129    4.479121118566e-03
   130    3.262580553483e-02
   131    1.963717949832e-02
   132    5.182732735633e-09
   133    2.727504219338e-02
   134    1.852690162433e-02
   135    4.355329338225e-09
   136    6.143999476937e-02
   137    3.713494762454e-02
   138    7.822236044266e-09
   139   -1.065780505980e-04
   140    2.755353582605e-11
   141   -2.955164605921e-11
   142    5.509537274688e-04
   143   -2.569615298657e-04
   144   -1.165976531426e-03
   145   -2.889978675118e-11
   146   -9.738749603808e-11
   147    3.002979117670e-03
   148   -2.206220313117e-04
   149    6.473619550913e-11
   150    4.079757633617e-04
   151    2.023166550783e-04
   152   -9.434336037389e-12
   153    3.394577633260e-12
   154   -2.234463624719e-04
   155    1.973140721245e-04
   156   -2.916514666599e-03
   157   -6.406852230531e-03
   158    7.715345396917e-03
   159    5.176539877279e-02
   160   -2.911347443511e-02
   161   -3.281092009070e-02
   162   -1.149867953627e-01
   163    3.538756696123e-09
   164   -3.200447279336e-02
   165   -1.121149891494e-01
   166    3.098015800350e-09
   167   -5.723823633609e-02
   168   -2.012971913451e-01
   169    5.385466378658e-09
   170    7.997366388351e-04
   171    2.157074988011e-11
   172    3.777714240775e-12
   173   -1.465493546587e-03
   174   -1.847172846013e-03
   175    3.209376939649e-03
   176    3.461861169782e-11
   177   -5.435849687981e-11
   178    1.036617977016e-03
   179   -4.978972697828e-03
   180    3.692043912450e-11
   181   -4.287931667734e-04
   182   -1.399445740991e-03
   183    1.448028454871e-11
   184   -3.946539916256e-12
   185   -2.756007440068e-04
   186   -1.055282215667e-04
   187    5.104555070503e-03
   188    1.178725593537e-02
   189   -1.452510662087e-02
   190   -4.943531491061e-02
   191   -3.411005792896e-02
   192   -2.028803089316e-01
   193    2.192337174601e-01
   194   -2.456603940136e-09
   195   -1.779358332606e-01
   196    1.855229139329e-01
   197   -2.138442038189e-09
   198   -2.906975885212e-01
   199    3.472178988816e-01
   200   -2.379324505315e-09
   201   -1.064813949113e-04
   202   -4.360613599563e-11
   203   -2.398849226059e-11
   204    9.717494818171e-04
   205   -2.925177252283e-04
   206   -2.769662241877e-05
   207   -1.414770813479e-10
   208   -1.025257411599e-10
   209   -1.285533145628e-03
   210   -5.624975861842e-03
   211    2.038000440903e-11
   212    2.516264817414e-03
   213   -3.335813940958e-03
   214    1.229488765772e-11
   215    2.835577772060e-11
   216    2.184196266046e-03
   217    6.264625603262e-04
   218    3.617595963843e-04
   219    6.907732137268e-04
   220    4.137304729552e-04
   221   -1.688801714891e-02
   222    2.748591721071e-02
   223    2.831202087105e-02
   224   -9.176271639315e-02
   225    8.852477303386e-09
   226    2.964832781878e-02
   227   -8.732128098204e-02
   228    7.333446554027e-09
   229    2.195088411534e-02
   230   -1.528087037133e-01
   231    1.305795852210e-08
   232   -1.662013125124e-04
   233   -1.471518100173e-10
   234    1.443092703474e-11
   235    8.095937806277e-04
   236    4.261521455861e-04
   237   -1.600157415575e-03
   238   -4.441264577539e-10
   239    1.781134102731e-10
   240   -1.156144811271e-03
   241    6.688245500915e-04
   242    8.983904061348e-11
   243    4.549450829665e-04
   244   -9.949042253674e-04
   245   -1.189535248286e-12
   246   -4.503706112656e-11
   247   -6.214265564168e-04
   248    1.916981934781e-04
   249    9.869355914804e-04
   250    2.062740635052e-03
   251   -7.766172424817e-04
   252   -3.317456488000e-02
   253    4.702407735552e-02
   254    2.271813090402e-02
   255   -6.822894156102e-02
   256    2.595561043140e-08
   257    2.173449312242e-02
   258   -6.530483721387e-02
   259    2.242632482368e-08
   260    2.943758719443e-02
   261   -7.599365129218e-02
   262    3.720465457861e-08
   263   -1.322939939771e-04
   264   -2.050171316554e-11
   265   -9.731319971913e-11
   266   -1.617240805822e-03
   267    4.765579908390e-04
   268   -2.809535532095e-03
   269   -2.624369448926e-11
   270    2.115602173083e-10
   271   -9.631480940258e-03
   272    3.380795166181e-03
   273    3.263297246749e-10
   274    3.895980105394e-04
   275   -1.103460860944e-03
   276   -2.601199858984e-11
   277   -1.218608006529e-11
   278    5.722816312368e-05
   279   -6.200031803201e-05
   280    3.307896678789e-03
   281    7.100572998912e-03
   282   -6.046405670701e-03
   283   -4.264926952043e-02
   284   -1.357364419402e-03
   285    2.465377318436e-03
   286   -1.068158743892e-01
   287    1.702861186853e-08
   288   -1.334842292505e-03
   289   -1.252926477258e-01
   290    1.450738293925e-08
   291    2.448880556054e-02
   292   -7.709040917229e-02
   293    2.405936150653e-08
   294   -1.475354569168e-04
   295   -1.523499745706e-11
   296   -2.003561812099e-11
   297    5.494645649076e-04
   298    4.435825925554e-04
   299    2.203937218230e-03
   300   -2.886768031577e-10
   301   -4.699125538019e-10
   302   -3.423776545394e-03
   303    5.947225022318e-03
   304    2.077464160005e-10
   305   -7.108055851623e-05
   306   -1.599153418991e-03
   307   -4.180183206593e-11
   308   -1.384661517640e-11
   309   -9.811158614082e-04
   310   -3.712194017106e-04
   311   -2.582002645690e-02
   312   -2.711527052298e-02
   313   -1.962627118059e-01
   314    5.526580469142e-04
   315    3.813667355633e-03
   316    1.401766218955e-10
   317   -4.151050270024e-03
   318   -6.499483677779e-03
   319   -2.753511598661e-02
   320    1.191735024155e-03
   321   -1.617294737983e-03
   322    4.308386069398e-10
   323    1.615073718136e-02
   324   -4.499789023309e-03
   325    1.349129319251e-01
   326   -4.015656871176e-03
   327    1.556870294066e-03
   328    2.768834023568e-10
   329    1.826733407849e-02
   330    2.235456781137e-02
   331    1.320826479444e-01
   332   -3.053676934066e-04
   333   -2.469385066508e-03
   334    1.014736312766e-11
   335    1.216259531344e-04
   336    1.565243437486e-03
   337   -1.842913772664e-03
   338    1.924316961771e-04
   339    4.365700945329e-04
   340    7.151428404013e-11
   341   -9.203473465273e-03
   342   -6.089196423154e-03
   343   -8.307513771049e-02
   344   -1.105544874598e-03
   345   -1.129313264144e-03
   346    8.365217520480e-11
   347    3.066086195942e-02
   348    3.054423472569e-02
   349    2.461142638406e-01
   350   -9.620984944520e-04
   351    4.312629155600e-03
   352    5.567761796619e-11
[5D7F]

======= END OF MOLDEN-FORMATTED INPUT FILE =======


        *************************************************************
        *                                                           *
        *  Thank you very much for using Q-Chem.  Have a nice day.  *
        *                                                           *
        *************************************************************


