                  Welcome to Q-Chem
     A Quantum Leap Into The Future Of Chemistry


 Q-Chem 6.0 (devel), Q-Chem, Inc., Pleasanton, CA (2022)

 E. Epifanovsky,  A. T. B. Gilbert,  Xintian Feng,  Joonho Lee,  Yuezhi Mao,  
 N. Mardirossian,  P. Pokhilko,  A. White,  M. Wormit,  M. P. Coons,  
 A. L. Dempwolff,  Zhengting Gan,  D. Hait,  P. R. Horn,  L. D. Jacobson,  
 I. Kaliman,  J. Kussmann,  A. W. Lange,  Ka Un Lao,  D. S. Levine,  Jie Liu,  
 S. C. McKenzie,  A. F. Morrison,  K. Nanda,  F. Plasser,  D. R. Rehn,  
 M. L. Vidal,  Zhi-Qiang You,  Ying Zhu,  B. Alam,  B. Albrecht,  
 A. Aldossary,  E. Alguire,  J. H. Andersen,  V. Athavale,  D. Barton,  
 K. Begam,  A. Behn,  N. Bellonzi,  Y. A. Bernard,  E. J. Berquist,  
 H. Burton,  A. Carreras,  K. Carter-Fenk,  Romit Chakraborty,  
 Chandrima Chakravarty,  Junhan Chen,  A. D. Chien,  K. D. Closser,  
 V. Cofer-Shabica,  L. Cunha,  S. Dasgupta,  Jia Deng,  M. de Wergifosse,  
 M. Diedenhofen,  Hainam Do,  S. Ehlert,  Po-Tung Fang,  S. Fatehi,  
 Qingguo Feng,  T. Friedhoff,  B. Ganoe,  J. Gayvert,  Qinghui Ge,  
 G. Gidofalvi,  M. Goldey,  J. Gomes,  C. Gonzalez-Espinoza,  S. Gulania,  
 A. Gunina,  J. A. Gyamfi,  M. W. D. Hanson-Heine,  P. H. P. Harbach,  
 A. W. Hauser,  M. F. Herbst,  M. Hernandez Vera,  M. Hodecker,  
 Z. C. Holden,  S. Houck,  Xunkun Huang,  Kerwin Hui,  B. C. Huynh,  
 K. Ikeda,  M. Ivanov,  Hyunjun Ji,  Zuxin Jin,  Hanjie Jiang,  B. Kaduk,  
 S. Kaehler,  R. Kang,  K. Khistyaev,  Jaehoon Kim,  Yongbin Kim,  
 P. Klunzinger,  Z. Koczor-Benda,  Joong Hoon Koh,  D. Kosenkov,  
 Saikiran Kotaru,  L. Koulias,  T. Kowalczyk,  C. M. Krauter,  K. Kue,  
 A. Kunitsa,  T. Kus,  A. Landau,  K. V. Lawler,  D. Lefrancois,  S. Lehtola,  
 Rain Li,  Shaozhi Li,  Yi-Pei Li,  Jiashu Liang,  M. Liebenthal,  
 Hung-Hsuan Lin,  You-Sheng Lin,  Fenglai Liu,  Kuan-Yu Liu,  
 M. Loipersberger,  A. Luenser,  C. Malbon,  A. Manjanath,  P. Manohar,  
 E. Mansoor,  S. F. Manzer,  Shan-Ping Mao,  A. V. Marenich,  T. Markovich,  
 S. Mason,  F. Matz,  S. A. Maurer,  P. F. McLaughlin,  M. F. S. J. Menger,  
 J.-M. Mewes,  S. A. Mewes,  P. Morgante,  Mohammad Mostafanejad,  
 J. W. Mullinax,  K. J. Oosterbaan,  G. Paran,  V. Parravicini,  
 Alexander C. Paul,  Suranjan K. Paul,  F. Pavosevic,  Zheng Pei,  S. Prager,  
 E. I. Proynov,  E. Ramos,  B. Rana,  A. E. Rask,  A. Rettig,  R. M. Richard,  
 F. Rob,  E. Rossomme,  T. Scheele,  M. Scheurer,  M. Schneider,  
 P. E. Schneider,  N. Sergueev,  S. M. Sharada,  Hengyuan Shen,  
 W. Skomorowski,  D. W. Small,  C. J. Stein,  Yingli Su,  Yu-Chuan Su,  
 E. J. Sundstrom,  Zhen Tao,  J. Thirman,  Hung-Yi Tsai,  T. Tsuchimochi,  
 N. M. Tubman,  C. Utku,  S. P. Veccham,  O. Vydrov,  J. Wenzel,  
 Jonathan Wong,  J. Witte,  A. Yamada,  Chou-Hsun Yang,  Kun Yao,  
 S. Yeganeh,  S. R. Yost,  A. Zech,  F. Zeller,  Igor Ying Zhang,  
 Xing Zhang,  Yu Zhang,  D. Zuev,  A. Aspuru-Guzik,  A. T. Bell,  
 N. A. Besley,  K. B. Bravaya,  B. R. Brooks,  D. Casanova,  Jeng-Da Chai,  
 Hsing-Ta Chen,  S. Coriani,  C. J. Cramer,  A. E. DePrince, III,  
 R. A. DiStasio Jr.,  A. Dreuw,  B. D. Dunietz,  T. R. Furlani,  
 W. A. Goddard III,  S. Grimme,  S. Hammes-Schiffer,  T. Head-Gordon,  
 W. J. Hehre,  Chao-Ping Hsu,  T.-C. Jagau,  Yousung Jung,  A. Klamt,  
 Jing Kong,  D. S. Lambrecht,  Xiangyuan Li,  WanZhen Liang,  N. J. Mayhall,  
 C. W. McCurdy,  J. B. Neaton,  T. Neudecker,  C. Ochsenfeld,  
 J. A. Parkhill,  R. Peverati,  V. A. Rassolov,  Haisheng Ren,  Yihan Shao,  
 L. V. Slipchenko,  R. P. Steele,  J. E. Subotnik,  A. J. W. Thom,  
 A. Tkatchenko,  D. G. Truhlar,  T. Van Voorhis,  Fan Wang,  
 T. A. Wesolowski,  K. B. Whaley,  H. L. Woodcock III,  P. M. Zimmerman,  
 S. Faraji,  P. M. W. Gill,  M. Head-Gordon,  J. M. Herbert,  A. I. Krylov

 Contributors to earlier versions of Q-Chem not listed above: 
 R. D. Adamson,  B. Austin,  R. Baer,  J. Baker,  G. J. O. Beran,  
 K. Brandhorst,  S. T. Brown,  E. F. C. Byrd,  Arup K. Chakraborty,  
 G. K. L. Chan,  Chun-Min Chang,  Yunqing Chen,  C.-L. Cheng,  
 Siu Hung Chien,  D. M. Chipman,  D. L. Crittenden,  H. Dachsel,  
 R. J. Doerksen,  A. D. Dutoi,  R. G. Edgar,  J. Fosso-Tande,  
 L. Fusti-Molnar,  D. Ghosh,  A. Ghysels,  A. Golubeva-Zadorozhnaya,  
 J. Gonthier,  M. S. Gordon,  S. R. Gwaltney,  G. Hawkins,  J. E. Herr,  
 A. Heyden,  S. Hirata,  E. G. Hohenstein,  G. Kedziora,  F. J. Keil,  
 C. Kelley,  Jihan Kim,  R. A. King,  R. Z. Khaliullin,  P. P. Korambath,  
 W. Kurlancheek,  A. Laurent,  A. M. Lee,  M. S. Lee,  S. V. Levchenko,  
 Ching Yeh Lin,  D. Liotard,  E. Livshits,  R. C. Lochan,  I. Lotan,  
 L. A. Martinez-Martinez,  P. E. Maslen,  N. Nair,  D. P. O'Neill,  
 D. Neuhauser,  E. Neuscamman,  C. M. Oana,  R. Olivares-Amaya,  R. Olson,  
 T. M. Perrine,  B. Peters,  P. A. Pieniazek,  A. Prociuk,  Y. M. Rhee,  
 J. Ritchie,  M. A. Rohrdanz,  E. Rosta,  N. J. Russ,  H. F. Schaefer III,  
 M. W. Schmidt,  N. E. Schultz,  S. Sharma,  N. Shenvi,  C. D. Sherrill,  
 A. C. Simmonett,  A. Sodt,  T. Stein,  D. Stuck,  K. S. Thanthiriwatte,  
 V. Vanovschi,  L. Vogt,  Tao Wang,  A. Warshel,  M. A. Watson,  
 C. F. Williams,  Q. Wu,  X. Xu,  Jun Yang,  W. Zhang,  Yan Zhao

   Please cite Q-Chem as follows:
  "Software for the frontiers of quantum chemistry:
   An overview of developments in the Q-Chem 5 package"
   J. Chem. Phys. 155, 084801 (2021)
   https://doi.org/10.1063/5.0055522 (open access)

 Q-Chem 6.0.1 for Intel X86 EM64T Linux

 Parts of Q-Chem use Armadillo 9.900.5 (Nocturnal Misbehaviour).
 http://arma.sourceforge.net/

 Q-Chem begins on Thu Dec 22 16:10:43 2022  

 Host: atlas-001
0

     Scratch files written to ./qchem914//
 Processing $rem in /scratch/abel/SOFTWARE/qchem/config/preferences:
 Processing $rem in /dipc/acebg/.qchemrc:

 Checking the input file for inconsistencies... 	...done.

--------------------------------------------------------------
User input:
--------------------------------------------------------------
$comment
 RAS-SF CALCULATION
$end

$molecule
 READ no2.molecule
$end

$rem
!**CALCULATION TYPE***     
JOBTYPE            sp    
EXCHANGE           HF
CORRELATION        RASCI    !RASCI=Casanova; RASCI2=Zimmerman
BASIS              6-31G*

!***SCF REFERENCE***
SKIP_SCFMAN        FALSE
UNRESTRICTED       FALSE
!SCF_GUESS          core
!SCF_GUESS_MIX      FALSE
!SCF_GUESS_ALWAYS   FALSE
MAX_SCF_CYCLES     500
SCF_CONVERGENCE    8
!SCF_ALGORITHM      DIIS !DIIS,DM,DIIS_DM,GDM,DIIS_GDM,GD

SYMMETRY           TRUE !use of symmetry for calculating integrals
SYM_IGNORE         FALSE !turn off using symmetry
SYM_TOL            5 !tolerance for determining point group

!THRESH             14
SCF_FINAL_PRINT     1 !0,1,2,3

!****RAS-SF****
RAS_ROOTS          10       !number of RAS-CI roots to be computed
SET_ITER           100     !number of iterations in RASCI
RAS_ELEC           11       !number of electrons in RAS2
!RAS_ELEC_ALPHA            !spin-α electrons in RAS2 
!RAS_ELEC_BETA             !spin-β electrons in RAS2

RAS_ACT            9       !number of orbitals in RAS2 
RAS_ACT_ORB   [7,8,9,10,11,12,13,14,15]  !user-selected RAS2 orbitals
RAS_OCC            6       !number of orbitals in RAS1
N_FROZEN_CORE      0     !Number of frozen core orbitals
N_FROZEN_VIRTUAL   0      !Number of frozen virtual orbitals
RAS_NATORB         TRUE    !computation of the natural orbital occupancies
!RAS_NATORB_STATE  0      !Saves NO of i RAS computed state in .fchk ﬁle

RAS_DO_HOLE        TRUE   !presence of hole excitations in RAS-CI wave function
RAS_DO_PART        TRUE   !presence of particle excitations
RAS_AMPL_PRINT     10     !threshold (×10 2 ) for the CI amplitudes

RAS_GUESS_CS       0      !number of closed shell guess conﬁgurations
RAS_SPIN_MULT      0      !spin multiplicity: 0=any, 2n+1=defined 
RAS_SRDFT          FALSE  !short-range density functional RAS-CI
RAS_NFRAG          0     !fragments of excitation analysis in RASCI

RAS_PRINT          2      !level of information
RAS_NATORB         TRUE   !computation of the natural orbital occupancies
!RAS_NATORB_STATE  0      !Saves NO of i RAS computed state in .fchk ﬁle
RAS_FOD            TRUE

!****RAS-SOC****
CALC_SOC           TRUE   !calculate SOC for EOM-CC, RAS-CI, ADC, TDDFT/TDA and TDDFT
!RAS_SOC_2E        TRUE   !two-electron mean-ﬁeld contribution, default=true
RAS_SOC_SYM_DENS   TRUE   !averaging of α and β densities

!****MEMORY****
MEM_TOTAL          60000 !Default 2000 MB
MEM_STATIC         16000  !Default 64 MB

!**Molecular Properties and Analysis **                                                                                          
GUI                2
STATE_ANALYSIS     TRUE
MOLDEN_FORMAT      TRUE
PRINT_ORBITALS     20
$end                                           

--------------------------------------------------------------
 ----------------------------------------------------------------
             Standard Nuclear Orientation (Angstroms)
    I     Atom           X                Y                Z
 ----------------------------------------------------------------
    1      N      -0.0000000000     0.0000000000     0.3240267236
    2      O      -1.1048267521    -0.0000000000    -0.1417616916
    3      O       1.1048267521     0.0000000000    -0.1417616916
 ----------------------------------------------------------------
 Molecular Point Group                 C2v   NOp =  4
 Largest Abelian Subgroup              C2v   NOp =  4
 Nuclear Repulsion Energy =          64.75805752 hartrees
 There are       12 alpha and       11 beta electrons
 Requested basis set is 6-31G(d)
 There are 12 shells and 45 basis functions

 Q-Chem warning in module libmdc/get_mega.C, line 167:

 Allowed MEM_STATIC has been capped at MEM_STATIC=8191.
 Reduce the value of MEM_STATIC to silence this warning.


 Total QAlloc Memory Limit  60000 MB
 Mega-Array Size      8007 MB
 MEM_STATIC part      8191 MB


                       Distance Matrix (Angstroms)
             N (  1)   O (  2)
   O (  2)  1.199000
   O (  3)  1.199000  2.209654
 
 A cutoff of  1.0D-12 yielded     77 shell pairs
 There are      1115 function pairs
 Smallest overlap matrix eigenvalue = 4.68E-03

 Scale SEOQF with 1.000000e+00/1.000000e+00/1.000000e+00

 Standard Electronic Orientation quadrupole field applied
 Nucleus-field energy     =     0.0000000058 hartrees
 Guess from superposition of atomic densities
 Warning:  Energy on first SCF cycle will be non-variational
 SAD guess density has 23.000000 electrons

 -----------------------------------------------------------------------
  General SCF calculation program by
  Eric Jon Sundstrom, Paul Horn, Yuezhi Mao, Dmitri Zuev, Alec White,
  David Stuck, Shaama M.S., Shane Yost, Joonho Lee, David Small,
  Daniel Levine, Susi Lehtola, Hugh Burton, Evgeny Epifanovsky,
  Bang C. Huynh
 -----------------------------------------------------------------------
 Hartree-Fock
 Orthonormalizing orbitals
 A restricted open-shell SCF calculation will be
 performed using GDM
 SCF converges when RMS gradient is below 1.0e-08
 ---------------------------------------
  Cycle       Energy        RMS Gradient
 ---------------------------------------
    1    -203.1810133953      6.51e-01   Descent step
    2    -203.6232969617      3.26e-01   Descent step
    3    -203.8779285203      1.98e-01   Descent step
    4    -203.9931539261      6.24e-02   Normal BFGS step
    5    -204.0172779734      1.28e-02   Normal BFGS step
    6    -204.0179502753      7.89e-03   Normal BFGS step
    7    -204.0180505853      3.43e-03   Normal BFGS step
    8    -204.0180678669      1.05e-03   Normal BFGS step
    9    -204.0180709911      5.85e-04   Normal BFGS step
   10    -204.0180714931      2.40e-04   Normal BFGS step
   11    -204.0180716024      4.23e-05   Normal BFGS step
   12    -204.0180716132      1.54e-05   Normal BFGS step
   13    -204.0180716138      2.67e-06   Normal BFGS step
   14    -204.0180716138      4.12e-07   Normal BFGS step
   15    -204.0180716138      8.25e-08   Normal BFGS step
   16    -204.0180716138      2.56e-08   Normal BFGS step
   17    -204.0180716138      4.84e-09  Convergence criterion met
The disked orbital energies are calculated using alpha and beta Focks
 ---------------------------------------
 Alpha HF Exchange    Energy = -11.78441621158766
 Beta HF Exchange     Energy = -11.06782048285561
 Nuclear Attraction   Energy =   0.00000000000000
 One-Electron (alpha) Energy = -209.34848224033661
 One-Electron (beta)  Energy = -198.33453827826384
 Total Coulomb        Energy = 161.75912807233286
 Final Alpha MO Eigenvalues
            1           2           3           4           5           6
    1 -20.6966825 -20.6966423 -15.8956669  -1.6741175  -1.4951075  -0.9457116
            7           8           9          10          11          12
    1  -0.7938884  -0.8281041  -0.7610551  -0.5899161  -0.5284098  -0.5035320
           13          14          15          16          17          18
    1   0.0774369   0.4372027   0.5585960   0.7530564   0.8029780   0.8339505
           19          20          21          22          23          24
    1   0.8339271   1.0191846   1.0696057   1.1438560   1.1586868   1.2166778
           25          26          27          28          29          30
    1   1.2115549   1.5020061   1.6362314   1.6477129   1.6492578   1.7196238
           31          32          33          34          35          36
    1   1.9927356   2.0208733   2.1024668   2.1368834   2.1332765   2.5086138
           37          38          39          40          41          42
    1   2.6462932   2.9934889   3.0299865   3.0491118   3.1480275   3.2131477
           43          44          45
    1   3.8121016   4.0358630   4.1066213
 Final Beta MO Eigenvalues
            1           2           3           4           5           6
    1 -20.6867352 -20.6866649 -15.8748954  -1.6357780  -1.4578360  -0.8832025
            7           8           9          10          11          12
    1  -0.7497781  -0.7191363  -0.7450755  -0.5030591  -0.5182429   0.0398639
           13          14          15          16          17          18
    1   0.1046932   0.4549511   0.6046787   0.7955307   0.8392146   0.8441290
           19          20          21          22          23          24
    1   0.8527479   1.0286340   1.1006940   1.1792909   1.1636338   1.2234337
           25          26          27          28          29          30
    1   1.2350014   1.5227922   1.6454055   1.6656140   1.6812251   1.7582816
           31          32          33          34          35          36
    1   2.0156899   2.0349701   2.1377032   2.1501386   2.1671374   2.5321981
           37          38          39          40          41          42
    1   2.6583492   3.0346979   3.0551485   3.0633659   3.1606908   3.2316555
           43          44          45
    1   3.8352143   4.0453399   4.1285647
 SCF time:   CPU 0.86s  wall 1.00s 
<S^2> =          0.750000000
 SCF   energy in the final basis set =     -204.0180716138
 Total energy in the final basis set =     -204.0180716138
Setting RAS_srDFT_COR/EXC
  
     ##========================================##
     ||                                        ||
     ||              R A S M A N 2             ||
     ||________________________________________||
     ||                                        ||
     ||  Author:                               ||
     ||                                        ||
     ||        David Casanova (2010)           ||
     ||                                        ||
     ##========================================##
  
  ***************************************************
  *  RAS-CI Dimensions:                             *
  *                                                 *
  *  Active Elec.:  11 ( 6, 5)   Active Orb.:   9   *
  *  Doubly Occ. :   6           Doubly Vir.:  30   *
  *  Frozen Occ. :   0           Frozen Vir.:   0   *
  *                                                 *
  *  Total CI configurations:    873936             * 
  *    Active configurations:     10584             * 
  *      Hole configurations:     69552             * 
  *  Particle configurations:    793800             * 
  *                                                 *
  *   Requested states:       10                    *
  *  Spin multiplicity: Any multiplicity            *
  *                                                 *
  ***************************************************
-----------------------------------------
    Memory requirements of RASCI

 Each CI-vector requires      6.67 MiB 
 Max. subspace vectors           1000      

 Reduced Lists                0.00 MiB 
 Excitation Lists             0.01 MiB 
 Excitation Lists Sign        0.01 MiB 
 CI-space (Max)            6741.92 MiB 
 Integrals                    2.17 MiB 
 Memory required (Max)     6741.94 MiB 
 Memory available          7811.55 MiB 

    Disk requirements of RASCI

 Fock matrix                  0.03 MiB 
 2-electron integrals         3.04 MiB 
 CI-space                 13335.21 MiB 
 Disk required            13338.27 MiB 
-----------------------------------------
  
RAS1 HF-like energy:           -172.8178313406
 Computing integrals
 Computing J and K matrices
 Computing addressing
 Making amplitude guesses
 
Direct CI diagonalization
 ---------------------------------------------------
 Iter    Rts Conv    Rts Left    Ttl Dev     Max Dev
 ---------------------------------------------------
   1         0          10      0.007246    0.000805
   2         0          10      0.003341    0.000372
   3         0          10      0.003433    0.000392
   4         0          10      0.001935    0.000230
   5         0          10      0.002055    0.000269
   6         0          10      0.001520    0.000234
   7         0          10      0.001540    0.000262
   8         0          10      0.001261    0.000220
   9         0          10      0.001306    0.000300
  10         0          10      0.001411    0.000515
  11         0          10      0.001096    0.000338
  12         0          10      0.001058    0.000283
  13         0          10      0.000740    0.000180
  14         0          10      0.000652    0.000163
  15         0          10      0.000502    0.000131
  16         0          10      0.000404    0.000104
  17         0          10      0.000655    0.000411
  18         0          10      0.000535    0.000349
  19         0          10      0.000473    0.000312
  20         0          10      0.000338    0.000217
  21         1           9      0.000333    0.000234
  22         1           9      0.000282    0.000200
  23         1           9      0.000254    0.000191
  24         2           8      0.000214    0.000159
  25         2           8      0.000162    0.000119
  26         3           7      0.000142    0.000105
  27         3           7      0.000113    0.000083
  28         4           6      0.000116    0.000089
  29         4           6      0.000129    0.000107
  30         5           5      0.000153    0.000134
  31         5           5      0.000668    0.000461
  32         5           5      0.000529    0.000297
  33         5           5      0.000388    0.000203
  34         5           5      0.000295    0.000166
  35         5           5      0.000208    0.000120
  36         6           4      0.000155    0.000090
  37         6           4      0.000128    0.000074
  38         7           3      0.000093    0.000052
  39         7           3      0.000070    0.000039
  40         7           3      0.000052    0.000027
  41         7           3      0.000043    0.000022
  42         8           2      0.000031    0.000015
  43         8           2      0.000026    0.000012
  44         8           2      0.000022    0.000010
  45         9           1      0.000018    0.000007
  46         9           1      0.000017    0.000007
  47         9           1      0.000014    0.000005
  48         9           1      0.000012    0.000004
  49         9           1      0.000011    0.000003
  50         9           1      0.000010    0.000002
  51         9           1      0.000009    0.000002
  52         9           1      0.000008    0.000001
  53         9           1      0.000007    0.000001
  54        10           0      0.000007    0.000001    Roots Converged
 ---------------------------------------------------
   
**************************************************
 RAS-CI total energy for state   1:   -204.226141026216
  Excitation energy (eV) =  0.000000000000
  State symmetry: A1    (C2v      )
  <S^2>      :  0.7500
  Dipole Moment:   -0.0000 X    -0.0000 Y    -0.1083 Z
 NATURAL OCCUPATION NUMBERS (higher than 1.0E-05)
            1           2           3           4           5           6
    1   1.9999995   1.9999993   1.9999979   1.9989047   1.9973330   1.9950965
            7           8           9          10          11          12
    1   1.9774577   1.9771570   1.9596538   1.9534478   1.9169160   1.0335409
           13          14          15          16          17          18
    1   0.1168797   0.0303869   0.0168560   0.0048870   0.0040455   0.0031213
           19          20          21          22          23          24
    1   0.0026304   0.0022722   0.0016317   0.0014895   0.0009383   0.0007023
           25          26          27          28          29          30
    1   0.0006463   0.0005996   0.0005473   0.0004247   0.0003898   0.0003293
           31          32          33          34          35          36
    1   0.0003250   0.0003094   0.0002096   0.0001488   0.0001467   0.0001457
           37          38          39          40          41          42
    1   0.0000975   0.0000946   0.0000799   0.0000718   0.0000602   0.0000193
Natural Orbitals stored in FCHK

  Amplitudes : 
  
 | HOLE  | ALPHA     | BETA      | PART  |    AMPLITUDE 
--------------------------------------------------
 |       | 111111000 | 111110000 |       |     9.3159232956816E-01
 |       | 111101100 | 111100100 |       |     1.2865479542880E-01
--------------------------------------------------
*** Contributions RASCI wfn    Active:  95.20
                                 Hole:   1.01
                                 Part:   3.78

      Mulliken population analysis 
 ---------------------------------------------------
   Atom    Charge (a.u.)   Spin (a.u.)  
 ---------------------------------------------------
   1  N    0.476154        0.442324 
   2  O   -0.238077        0.278838 
   3  O   -0.238077        0.278838 
 ---------------------------------------------------
   Sum:   -0.000000        1.000000 
 ---------------------------------------------------
 
  
 NATURAL OCCUPATION NUMBERS (higher than 1.0E-05)
            1           2           3           4           5           6
    1   1.9999995   1.9999993   1.9999979   1.9989047   1.9973330   1.9950965
            7           8           9          10          11          12
    1   1.9774577   1.9771570   1.9596538   1.9534478   1.9169160   1.0335409
           13          14          15          16          17          18
    1   0.1168797   0.0303869   0.0168560   0.0048870   0.0040455   0.0031213
           19          20          21          22          23          24
    1   0.0026304   0.0022722   0.0016317   0.0014895   0.0009383   0.0007023
           25          26          27          28          29          30
    1   0.0006463   0.0005996   0.0005473   0.0004247   0.0003898   0.0003293
           31          32          33          34          35          36
    1   0.0003250   0.0003094   0.0002096   0.0001488   0.0001467   0.0001457
           37          38          39          40          41          42
    1   0.0000975   0.0000946   0.0000799   0.0000718   0.0000602   0.0000193
  
*** Unpaired Electrons
 Yamaguchi Nd:         1.80
 Head-Gordon Nu:       1.38
 Head-Gordon Nu_nl:    1.10
  
**************************************************
 RAS-CI total energy for state   2:   -204.116634451501
  Excitation energy (eV) =  2.979825506767
  State symmetry: B2    (C2v      )
  <S^2>      :  0.7500
  Dipole Moment:   -0.0000 X    -0.0000 Y    -0.1505 Z
  Trans. Moment:   -0.0000 X     0.0749 Y    -0.0000 Z
  Strength   :  0.000409
  Natural transition orbitals ( 1 -> 2 ):
   e-/hole pair  1 alpha:  ampl =  0.915139 ( 83.7%)   [9 : 10]
   e-/hole pair  2 alpha:  ampl =  0.060230 (  0.4%)   [8 : 11]
   e-/hole pair  1 beta :  ampl =  0.048493 (  0.2%)   [9 : 10]
   e-/hole pair  2 beta :  ampl =  0.039649 (  0.2%)   [8 : 11]
   Sum of square amplitudes: 0.85

 NATURAL OCCUPATION NUMBERS (higher than 1.0E-05)
            1           2           3           4           5           6
    1   1.9999995   1.9999994   1.9999977   1.9987613   1.9973520   1.9934476
            7           8           9          10          11          12
    1   1.9790789   1.9776436   1.9634019   1.9499051   1.8768124   1.0328089
           13          14          15          16          17          18
    1   0.1661173   0.0253495   0.0116534   0.0053666   0.0046534   0.0036791
           19          20          21          22          23          24
    1   0.0026594   0.0023281   0.0018351   0.0013011   0.0008535   0.0006964
           25          26          27          28          29          30
    1   0.0006547   0.0005205   0.0005033   0.0003825   0.0003661   0.0003511
           31          32          33          34          35          36
    1   0.0003436   0.0002194   0.0001872   0.0001325   0.0001318   0.0001275
           37          38          39          40          41          42
    1   0.0000947   0.0000767   0.0000747   0.0000639   0.0000413   0.0000197
Natural Orbitals stored in FCHK

  Amplitudes : 
  
 | HOLE  | ALPHA     | BETA      | PART  |    AMPLITUDE 
--------------------------------------------------
 |       | 111110100 | 111110000 |       |     9.0767388098913E-01
 |       | 111110100 | 101111000 |       |    -1.1213912440776E-01
 |       | 111011100 | 111011000 |       |    -1.6736175651928E-01
 |       | 101111100 | 111110000 |       |    -1.5141452129603E-01
--------------------------------------------------
*** Contributions RASCI wfn    Active:  94.02
                                 Hole:   1.69
                                 Part:   4.29

      Mulliken population analysis 
 ---------------------------------------------------
   Atom    Charge (a.u.)   Spin (a.u.)  
 ---------------------------------------------------
   1  N    0.473044        0.634003 
   2  O   -0.236522        0.182999 
   3  O   -0.236522        0.182999 
 ---------------------------------------------------
   Sum:   -0.000000        1.000000 
 ---------------------------------------------------
 
  
 NATURAL OCCUPATION NUMBERS (higher than 1.0E-05)
            1           2           3           4           5           6
    1   1.9999995   1.9999994   1.9999977   1.9987613   1.9973520   1.9934476
            7           8           9          10          11          12
    1   1.9790789   1.9776436   1.9634019   1.9499051   1.8768124   1.0328089
           13          14          15          16          17          18
    1   0.1661173   0.0253495   0.0116534   0.0053666   0.0046534   0.0036791
           19          20          21          22          23          24
    1   0.0026594   0.0023281   0.0018351   0.0013011   0.0008535   0.0006964
           25          26          27          28          29          30
    1   0.0006547   0.0005205   0.0005033   0.0003825   0.0003661   0.0003511
           31          32          33          34          35          36
    1   0.0003436   0.0002194   0.0001872   0.0001325   0.0001318   0.0001275
           37          38          39          40          41          42
    1   0.0000947   0.0000767   0.0000747   0.0000639   0.0000413   0.0000197
  
*** Unpaired Electrons
 Yamaguchi Nd:         1.94
 Head-Gordon Nu:       1.46
 Head-Gordon Nu_nl:    1.17
  
**************************************************
 RAS-CI total energy for state   3:   -204.099183851068
  Excitation energy (eV) =  3.454680504412
  State symmetry: B1    (C2v      )
  <S^2>      :  0.7500
  Dipole Moment:   -0.0000 X     0.0000 Y     0.1844 Z
  Trans. Moment:   -0.2995 X    -0.0000 Y     0.0000 Z
  Strength   :  0.007594
  Natural transition orbitals ( 1 -> 3 ):
   e-/hole pair  1 alpha:  ampl =  0.224360 (  5.0%)   [9 : 10]
   e-/hole pair  2 alpha:  ampl =  0.075130 (  0.6%)   [8 : 11]
   e-/hole pair  1 beta :  ampl =  0.885899 ( 78.5%)   [9 : 10]
   e-/hole pair  2 beta :  ampl =  0.119645 (  1.4%)   [8 : 11]
   Sum of square amplitudes: 0.87

 NATURAL OCCUPATION NUMBERS (higher than 1.0E-05)
            1           2           3           4           5           6
    1   1.9999997   1.9999993   1.9999985   1.9989422   1.9974494   1.9965198
            7           8           9          10          11          12
    1   1.9831213   1.9718500   1.9614493   1.8587410   1.8418073   1.1244294
           13          14          15          16          17          18
    1   0.1924574   0.0285490   0.0204730   0.0044488   0.0029148   0.0025061
           19          20          21          22          23          24
    1   0.0025049   0.0024048   0.0016922   0.0013135   0.0008248   0.0007722
           25          26          27          28          29          30
    1   0.0006832   0.0006208   0.0005718   0.0004107   0.0004062   0.0003670
           31          32          33          34          35          36
    1   0.0003203   0.0002643   0.0002372   0.0001859   0.0001557   0.0001491
           37          38          39          40          41          42
    1   0.0001080   0.0001038   0.0000951   0.0000617   0.0000596   0.0000220
Natural Orbitals stored in FCHK

  Amplitudes : 
  
 | HOLE  | ALPHA     | BETA      | PART  |    AMPLITUDE 
--------------------------------------------------
 |       | 111111000 | 111100100 |       |     1.2798603027046E-01
 |       | 111111000 | 111011000 |       |     8.8696334088747E-01
 |       | 111110100 | 111101000 |       |    -1.0175142121149E-01
 |       | 111101100 | 111110000 |       |    -2.2974051445590E-01
--------------------------------------------------
*** Contributions RASCI wfn    Active:  94.30
                                 Hole:   1.00
                                 Part:   4.70

      Mulliken population analysis 
 ---------------------------------------------------
   Atom    Charge (a.u.)   Spin (a.u.)  
 ---------------------------------------------------
   1  N    0.345729       -0.018130 
   2  O   -0.172865        0.509065 
   3  O   -0.172865        0.509065 
 ---------------------------------------------------
   Sum:   -0.000000        1.000000 
 ---------------------------------------------------
 
  
 NATURAL OCCUPATION NUMBERS (higher than 1.0E-05)
            1           2           3           4           5           6
    1   1.9999997   1.9999993   1.9999985   1.9989422   1.9974494   1.9965198
            7           8           9          10          11          12
    1   1.9831213   1.9718500   1.9614493   1.8587410   1.8418073   1.1244294
           13          14          15          16          17          18
    1   0.1924574   0.0285490   0.0204730   0.0044488   0.0029148   0.0025061
           19          20          21          22          23          24
    1   0.0025049   0.0024048   0.0016922   0.0013135   0.0008248   0.0007722
           25          26          27          28          29          30
    1   0.0006832   0.0006208   0.0005718   0.0004107   0.0004062   0.0003670
           31          32          33          34          35          36
    1   0.0003203   0.0002643   0.0002372   0.0001859   0.0001557   0.0001491
           37          38          39          40          41          42
    1   0.0001080   0.0001038   0.0000951   0.0000617   0.0000596   0.0000220
  
*** Unpaired Electrons
 Yamaguchi Nd:         2.21
 Head-Gordon Nu:       1.53
 Head-Gordon Nu_nl:    1.26
  
**************************************************
 RAS-CI total energy for state   4:   -204.085841494190
  Excitation energy (eV) =  3.817744507192
  State symmetry: A2    (C2v      )
  <S^2>      :  0.7500
  Dipole Moment:   -0.0000 X    -0.0000 Y     0.2423 Z
  Trans. Moment:   -0.0000 X    -0.0000 Y    -0.0000 Z
  Strength   :  0.000000
  Natural transition orbitals ( 1 -> 4 ):
   e-/hole pair  1 alpha:  ampl =  0.065606 (  0.4%)   [9 : 10]
   e-/hole pair  2 alpha:  ampl =  0.024114 (  0.1%)   [8 : 11]
   e-/hole pair  1 beta :  ampl =  0.912567 ( 83.3%)   [9 : 10]
   e-/hole pair  2 beta :  ampl =  0.102780 (  1.1%)   [8 : 11]
   Sum of square amplitudes: 0.85

 NATURAL OCCUPATION NUMBERS (higher than 1.0E-05)
            1           2           3           4           5           6
    1   1.9999997   1.9999994   1.9999986   1.9989662   1.9976664   1.9972073
            7           8           9          10          11          12
    1   1.9899793   1.9865683   1.9744891   1.9486241   1.9088094   1.0134218
           13          14          15          16          17          18
    1   0.1172913   0.0271851   0.0182951   0.0039212   0.0031407   0.0021216
           19          20          21          22          23          24
    1   0.0018193   0.0015862   0.0014823   0.0013007   0.0007072   0.0007030
           25          26          27          28          29          30
    1   0.0006141   0.0005428   0.0004559   0.0004446   0.0004001   0.0003884
           31          32          33          34          35          36
    1   0.0003800   0.0003114   0.0002049   0.0001741   0.0001637   0.0001570
           37          38          39          40          41          42
    1   0.0001203   0.0001155   0.0000981   0.0000630   0.0000591   0.0000156
Natural Orbitals stored in FCHK

  Amplitudes : 
  
 | HOLE  | ALPHA     | BETA      | PART  |    AMPLITUDE 
--------------------------------------------------
 |       | 111111000 | 111101000 |       |     9.2577736086804E-01
 |       | 111110100 | 111100100 |       |    -1.0036100456066E-01
 |       | 111101100 | 110111000 |       |     1.5307299930100E-01
 |       | 110111100 | 110101100 |       |     1.0496435828805E-01
--------------------------------------------------
*** Contributions RASCI wfn    Active:  94.91
                                 Hole:   0.90
                                 Part:   4.18

      Mulliken population analysis 
 ---------------------------------------------------
   Atom    Charge (a.u.)   Spin (a.u.)  
 ---------------------------------------------------
   1  N    0.337760       -0.212542 
   2  O   -0.168880        0.606271 
   3  O   -0.168880        0.606271 
 ---------------------------------------------------
   Sum:   -0.000000        1.000000 
 ---------------------------------------------------
 
  
 NATURAL OCCUPATION NUMBERS (higher than 1.0E-05)
            1           2           3           4           5           6
    1   1.9999997   1.9999994   1.9999986   1.9989662   1.9976664   1.9972073
            7           8           9          10          11          12
    1   1.9899793   1.9865683   1.9744891   1.9486241   1.9088094   1.0134218
           13          14          15          16          17          18
    1   0.1172913   0.0271851   0.0182951   0.0039212   0.0031407   0.0021216
           19          20          21          22          23          24
    1   0.0018193   0.0015862   0.0014823   0.0013007   0.0007072   0.0007030
           25          26          27          28          29          30
    1   0.0006141   0.0005428   0.0004559   0.0004446   0.0004001   0.0003884
           31          32          33          34          35          36
    1   0.0003800   0.0003114   0.0002049   0.0001741   0.0001637   0.0001570
           37          38          39          40          41          42
    1   0.0001203   0.0001155   0.0000981   0.0000630   0.0000591   0.0000156
  
*** Unpaired Electrons
 Yamaguchi Nd:         1.74
 Head-Gordon Nu:       1.37
 Head-Gordon Nu_nl:    1.10
  
**************************************************
 RAS-CI total energy for state   5:   -204.053111671268
  Excitation energy (eV) =  4.708368302433
  State symmetry: B1    (C2v      )
  <S^2>      :  3.7500
  Dipole Moment:   -0.0000 X    -0.0000 Y     0.0145 Z
  Trans. Moment:    0.0000 X     0.0000 Y    -0.0000 Z
  Strength   :  0.000000
  Natural transition orbitals ( 1 -> 5 ):
   e-/hole pair  1 alpha:  ampl =  0.536352 ( 28.8%)   [9 : 10]
   e-/hole pair  2 alpha:  ampl =  0.084678 (  0.7%)   [8 : 11]
   e-/hole pair  1 beta :  ampl =  0.536355 ( 28.8%)   [9 : 10]
   e-/hole pair  2 beta :  ampl =  0.084677 (  0.7%)   [8 : 11]
   Sum of square amplitudes: 0.59

 NATURAL OCCUPATION NUMBERS (higher than 1.0E-05)
            1           2           3           4           5           6
    1   1.9999995   1.9999993   1.9999984   1.9987158   1.9973366   1.9962643
            7           8           9          10          11          12
    1   1.9818419   1.9815004   1.9636160   1.9523865   1.0286901   1.0238339
           13          14          15          16          17          18
    1   1.0037226   0.0297874   0.0146557   0.0052392   0.0040149   0.0034096
           19          20          21          22          23          24
    1   0.0030321   0.0022075   0.0015024   0.0014901   0.0013236   0.0006954
           25          26          27          28          29          30
    1   0.0006233   0.0005975   0.0005708   0.0004228   0.0003951   0.0003665
           31          32          33          34          35          36
    1   0.0003415   0.0003043   0.0001770   0.0001737   0.0001430   0.0001390
           37          38          39          40          41          42
    1   0.0001260   0.0001147   0.0000970   0.0000645   0.0000503   0.0000202
Natural Orbitals stored in FCHK

  Amplitudes : 
  
 | HOLE  | ALPHA     | BETA      | PART  |    AMPLITUDE 
--------------------------------------------------
 |       | 111111000 | 111100100 |       |    -5.4648000608880E-01
 |       | 111110100 | 111101000 |       |     5.4648089405227E-01
 |       | 111101100 | 111110000 |       |    -5.4646792084735E-01
--------------------------------------------------
*** Contributions RASCI wfn    Active:  94.03
                                 Hole:   1.24
                                 Part:   4.72

      Mulliken population analysis 
 ---------------------------------------------------
   Atom    Charge (a.u.)   Spin (a.u.)  
 ---------------------------------------------------
   1  N    0.346212        0.339090 
   2  O   -0.173106        0.330455 
   3  O   -0.173106        0.330455 
 ---------------------------------------------------
   Sum:   -0.000000        1.000000 
 ---------------------------------------------------
 
  
 NATURAL OCCUPATION NUMBERS (higher than 1.0E-05)
            1           2           3           4           5           6
    1   1.9999995   1.9999993   1.9999984   1.9987158   1.9973366   1.9962643
            7           8           9          10          11          12
    1   1.9818419   1.9815004   1.9636160   1.9523865   1.0286901   1.0238339
           13          14          15          16          17          18
    1   1.0037226   0.0297874   0.0146557   0.0052392   0.0040149   0.0034096
           19          20          21          22          23          24
    1   0.0030321   0.0022075   0.0015024   0.0014901   0.0013236   0.0006954
           25          26          27          28          29          30
    1   0.0006233   0.0005975   0.0005708   0.0004228   0.0003951   0.0003665
           31          32          33          34          35          36
    1   0.0003415   0.0003043   0.0001770   0.0001737   0.0001430   0.0001390
           37          38          39          40          41          42
    1   0.0001260   0.0001147   0.0000970   0.0000645   0.0000503   0.0000202
  
*** Unpaired Electrons
 Yamaguchi Nd:         3.39
 Head-Gordon Nu:       3.14
 Head-Gordon Nu_nl:    3.02
  
**************************************************
 RAS-CI total energy for state   6:   -204.018458288039
  Excitation energy (eV) =  5.651334836721
  State symmetry: A2    (C2v      )
  <S^2>      :  0.7500
  Dipole Moment:   -0.0000 X    -0.0000 Y    -0.0122 Z
  Trans. Moment:   -0.0000 X     0.0000 Y     0.0000 Z
  Strength   :  0.000000
  Natural transition orbitals ( 1 -> 6 ):
   e-/hole pair  1 alpha:  ampl =  0.558388 ( 31.2%)   [9 : 10]
   e-/hole pair  2 alpha:  ampl =  0.052622 (  0.3%)   [8 : 11]
   e-/hole pair  1 beta :  ampl =  0.698076 ( 48.7%)   [9 : 10]
   e-/hole pair  2 beta :  ampl =  0.062787 (  0.4%)   [8 : 11]
   Sum of square amplitudes: 0.81

 NATURAL OCCUPATION NUMBERS (higher than 1.0E-05)
            1           2           3           4           5           6
    1   1.9999997   1.9999994   1.9999980   1.9988251   1.9975568   1.9945157
            7           8           9          10          11          12
    1   1.9819903   1.9796035   1.9518497   1.9335512   1.0462742   1.0440338
           13          14          15          16          17          18
    1   1.0058928   0.0264945   0.0131021   0.0041023   0.0038418   0.0033562
           19          20          21          22          23          24
    1   0.0026231   0.0021625   0.0017086   0.0015128   0.0010642   0.0008424
           25          26          27          28          29          30
    1   0.0007699   0.0007482   0.0005701   0.0004609   0.0004274   0.0003721
           31          32          33          34          35          36
    1   0.0003575   0.0002220   0.0002109   0.0001728   0.0001678   0.0001502
           37          38          39          40          41          42
    1   0.0001207   0.0001032   0.0001011   0.0000691   0.0000505   0.0000158
Natural Orbitals stored in FCHK

  Amplitudes : 
  
 | HOLE  | ALPHA     | BETA      | PART  |    AMPLITUDE 
--------------------------------------------------
 |       | 111111000 | 111010100 |       |     7.1092148857454E-01
 |       | 111110100 | 111100100 |       |    -1.2507405147795E-01
 |       | 111110100 | 111011000 |       |     1.3614406986256E-01
 |       | 111011100 | 111110000 |       |    -5.7477741871567E-01
 |       | 101111100 | 111011000 |       |    -1.0400830111246E-01
--------------------------------------------------
*** Contributions RASCI wfn    Active:  94.25
                                 Hole:   1.22
                                 Part:   4.53

      Mulliken population analysis 
 ---------------------------------------------------
   Atom    Charge (a.u.)   Spin (a.u.)  
 ---------------------------------------------------
   1  N    0.400892        0.304403 
   2  O   -0.200446        0.347799 
   3  O   -0.200446        0.347799 
 ---------------------------------------------------
   Sum:   -0.000000        1.000000 
 ---------------------------------------------------
 
  
 NATURAL OCCUPATION NUMBERS (higher than 1.0E-05)
            1           2           3           4           5           6
    1   1.9999997   1.9999994   1.9999980   1.9988251   1.9975568   1.9945157
            7           8           9          10          11          12
    1   1.9819903   1.9796035   1.9518497   1.9335512   1.0462742   1.0440338
           13          14          15          16          17          18
    1   1.0058928   0.0264945   0.0131021   0.0041023   0.0038418   0.0033562
           19          20          21          22          23          24
    1   0.0026231   0.0021625   0.0017086   0.0015128   0.0010642   0.0008424
           25          26          27          28          29          30
    1   0.0007699   0.0007482   0.0005701   0.0004609   0.0004274   0.0003721
           31          32          33          34          35          36
    1   0.0003575   0.0002220   0.0002109   0.0001728   0.0001678   0.0001502
           37          38          39          40          41          42
    1   0.0001207   0.0001032   0.0001011   0.0000691   0.0000505   0.0000158
  
*** Unpaired Electrons
 Yamaguchi Nd:         3.44
 Head-Gordon Nu:       3.13
 Head-Gordon Nu_nl:    3.02
  
**************************************************
 RAS-CI total energy for state   7:   -204.002940959902
  Excitation energy (eV) =  6.073582818649
  State symmetry: B1    (C2v      )
  <S^2>      :  0.7500
  Dipole Moment:   -0.0000 X     0.0000 Y     0.0449 Z
  Trans. Moment:   -0.1720 X    -0.0000 Y    -0.0000 Z
  Strength   :  0.004402
  Natural transition orbitals ( 1 -> 7 ):
   e-/hole pair  1 alpha:  ampl =  0.414275 ( 17.2%)   [9 : 10]
   e-/hole pair  2 alpha:  ampl =  0.044993 (  0.2%)   [8 : 11]
   e-/hole pair  1 beta :  ampl =  0.328398 ( 10.8%)   [9 : 10]
   e-/hole pair  2 beta :  ampl =  0.151265 (  2.3%)   [8 : 11]
   Sum of square amplitudes: 0.31

 NATURAL OCCUPATION NUMBERS (higher than 1.0E-05)
            1           2           3           4           5           6
    1   1.9999996   1.9999994   1.9999983   1.9988678   1.9975830   1.9951639
            7           8           9          10          11          12
    1   1.9761432   1.9752510   1.9362887   1.9337509   1.0675587   1.0643655
           13          14          15          16          17          18
    1   0.9873167   0.0287137   0.0126270   0.0037737   0.0035979   0.0033906
           19          20          21          22          23          24
    1   0.0028617   0.0021581   0.0015584   0.0014454   0.0012177   0.0010340
           25          26          27          28          29          30
    1   0.0008977   0.0006899   0.0005907   0.0005303   0.0004151   0.0003870
           31          32          33          34          35          36
    1   0.0003621   0.0003225   0.0001835   0.0001803   0.0001671   0.0001421
           37          38          39          40          41          42
    1   0.0001416   0.0000963   0.0000813   0.0000672   0.0000508   0.0000202
Natural Orbitals stored in FCHK

  Amplitudes : 
  
 | HOLE  | ALPHA     | BETA      | PART  |    AMPLITUDE 
--------------------------------------------------
 |       | 111111000 | 111100100 |       |     3.2627758433688E-01
 |       | 111111000 | 111011000 |       |     1.3599244676864E-01
 |       | 111110100 | 111101000 |       |     7.5418817325025E-01
 |       | 111101100 | 111110000 |       |     4.2789162442358E-01
 |       | 111011100 | 110111000 |       |     1.2521272518660E-01
--------------------------------------------------
*** Contributions RASCI wfn    Active:  94.31
                                 Hole:   1.21
                                 Part:   4.48

      Mulliken population analysis 
 ---------------------------------------------------
   Atom    Charge (a.u.)   Spin (a.u.)  
 ---------------------------------------------------
   1  N    0.350367        0.178910 
   2  O   -0.175184        0.410545 
   3  O   -0.175184        0.410545 
 ---------------------------------------------------
   Sum:   -0.000000        1.000000 
 ---------------------------------------------------
 
  
 NATURAL OCCUPATION NUMBERS (higher than 1.0E-05)
            1           2           3           4           5           6
    1   1.9999996   1.9999994   1.9999983   1.9988678   1.9975830   1.9951639
            7           8           9          10          11          12
    1   1.9761432   1.9752510   1.9362887   1.9337509   1.0675587   1.0643655
           13          14          15          16          17          18
    1   0.9873167   0.0287137   0.0126270   0.0037737   0.0035979   0.0033906
           19          20          21          22          23          24
    1   0.0028617   0.0021581   0.0015584   0.0014454   0.0012177   0.0010340
           25          26          27          28          29          30
    1   0.0008977   0.0006899   0.0005907   0.0005303   0.0004151   0.0003870
           31          32          33          34          35          36
    1   0.0003621   0.0003225   0.0001835   0.0001803   0.0001671   0.0001421
           37          38          39          40          41          42
    1   0.0001416   0.0000963   0.0000813   0.0000672   0.0000508   0.0000202
  
*** Unpaired Electrons
 Yamaguchi Nd:         3.49
 Head-Gordon Nu:       3.11
 Head-Gordon Nu_nl:    3.02
  
**************************************************
 RAS-CI total energy for state   8:   -203.966395115973
  Excitation energy (eV) =  7.068045828630
  State symmetry: A2    (C2v      )
  <S^2>      :  0.7500
  Dipole Moment:   -0.0000 X     0.0000 Y    -0.1279 Z
  Trans. Moment:   -0.0000 X    -0.0000 Y     0.0000 Z
  Strength   :  0.000000
  Natural transition orbitals ( 1 -> 8 ):
   e-/hole pair  1 alpha:  ampl =  0.422083 ( 17.8%)   [9 : 10]
   e-/hole pair  2 alpha:  ampl =  0.042777 (  0.2%)   [8 : 11]
   e-/hole pair  1 beta :  ampl =  0.280846 (  7.9%)   [9 : 10]
   e-/hole pair  2 beta :  ampl =  0.091759 (  0.8%)   [8 : 11]
   Sum of square amplitudes: 0.27

 NATURAL OCCUPATION NUMBERS (higher than 1.0E-05)
            1           2           3           4           5           6
    1   1.9999996   1.9999994   1.9999983   1.9983728   1.9976641   1.9938398
            7           8           9          10          11          12
    1   1.9767399   1.9727907   1.9170705   1.8918941   1.1055750   1.0893682
           13          14          15          16          17          18
    1   0.9841640   0.0321869   0.0124132   0.0045778   0.0045328   0.0030988
           19          20          21          22          23          24
    1   0.0026175   0.0021221   0.0017725   0.0017503   0.0010452   0.0009776
           25          26          27          28          29          30
    1   0.0009226   0.0008440   0.0005580   0.0004232   0.0004229   0.0004160
           31          32          33          34          35          36
    1   0.0004013   0.0002631   0.0002520   0.0001866   0.0001537   0.0001503
           37          38          39          40          41          42
    1   0.0001121   0.0000905   0.0000808   0.0000687   0.0000562   0.0000166
Natural Orbitals stored in FCHK

  Amplitudes : 
  
 | HOLE  | ALPHA     | BETA      | PART  |    AMPLITUDE 
--------------------------------------------------
 |       | 111111000 | 111010100 |       |    -2.7847620614950E-01
 |       | 111110100 | 111100100 |       |    -2.5761977322392E-01
 |       | 111110100 | 111011000 |       |    -7.0851130650723E-01
 |       | 111011100 | 111110000 |       |    -4.3003510035615E-01
 |       | 111011100 | 101111000 |       |    -1.6389764785285E-01
 |       | 101111100 | 111011000 |       |    -1.0236194063413E-01
--------------------------------------------------
*** Contributions RASCI wfn    Active:  94.09
                                 Hole:   1.30
                                 Part:   4.61

      Mulliken population analysis 
 ---------------------------------------------------
   Atom    Charge (a.u.)   Spin (a.u.)  
 ---------------------------------------------------
   1  N    0.398631        0.212290 
   2  O   -0.199316        0.393855 
   3  O   -0.199316        0.393855 
 ---------------------------------------------------
   Sum:   -0.000000        1.000000 
 ---------------------------------------------------
 
  
 NATURAL OCCUPATION NUMBERS (higher than 1.0E-05)
            1           2           3           4           5           6
    1   1.9999996   1.9999994   1.9999983   1.9983728   1.9976641   1.9938398
            7           8           9          10          11          12
    1   1.9767399   1.9727907   1.9170705   1.8918941   1.1055750   1.0893682
           13          14          15          16          17          18
    1   0.9841640   0.0321869   0.0124132   0.0045778   0.0045328   0.0030988
           19          20          21          22          23          24
    1   0.0026175   0.0021221   0.0017725   0.0017503   0.0010452   0.0009776
           25          26          27          28          29          30
    1   0.0009226   0.0008440   0.0005580   0.0004232   0.0004229   0.0004160
           31          32          33          34          35          36
    1   0.0004013   0.0002631   0.0002520   0.0001866   0.0001537   0.0001503
           37          38          39          40          41          42
    1   0.0001121   0.0000905   0.0000808   0.0000687   0.0000562   0.0000166
  
*** Unpaired Electrons
 Yamaguchi Nd:         3.61
 Head-Gordon Nu:       3.11
 Head-Gordon Nu_nl:    3.04
  
**************************************************
 RAS-CI total energy for state   9:   -203.923882767576
  Excitation energy (eV) =  8.224865685673
  State symmetry: B2    (C2v      )
  <S^2>      :  0.7500
  Dipole Moment:    0.0000 X    -0.0000 Y     0.1651 Z
  Trans. Moment:    0.0000 X     0.1507 Y     0.0000 Z
  Strength   :  0.004579
  Natural transition orbitals ( 1 -> 9 ):
   e-/hole pair  1 alpha:  ampl =  0.064216 (  0.4%)   [9 : 10]
   e-/hole pair  2 alpha:  ampl =  0.027031 (  0.1%)   [8 : 11]
   e-/hole pair  1 beta :  ampl =  0.827119 ( 68.4%)   [9 : 10]
   e-/hole pair  2 beta :  ampl =  0.071909 (  0.5%)   [8 : 11]
   Sum of square amplitudes: 0.70

 NATURAL OCCUPATION NUMBERS (higher than 1.0E-05)
            1           2           3           4           5           6
    1   1.9999996   1.9999995   1.9999990   1.9991262   1.9977011   1.9954733
            7           8           9          10          11          12
    1   1.9871032   1.9827652   1.9746202   1.9531157   1.4835001   1.2131688
           13          14          15          16          17          18
    1   0.3420566   0.0301928   0.0198886   0.0034650   0.0029110   0.0020791
           19          20          21          22          23          24
    1   0.0020419   0.0018671   0.0016525   0.0013357   0.0006975   0.0006871
           25          26          27          28          29          30
    1   0.0005779   0.0005594   0.0004868   0.0004571   0.0003826   0.0003429
           31          32          33          34          35          36
    1   0.0003364   0.0002668   0.0001997   0.0001990   0.0001600   0.0001433
           37          38          39          40          41          42
    1   0.0001060   0.0001029   0.0000929   0.0000652   0.0000481   0.0000180
Natural Orbitals stored in FCHK

  Amplitudes : 
  
 | HOLE  | ALPHA     | BETA      | PART  |    AMPLITUDE 
--------------------------------------------------
 |       | 111111000 | 110111000 |       |     8.0874656371943E-01
 |       | 111101100 | 111101000 |       |     4.5051997133536E-01
 |       | 111101100 | 110101100 |       |    -1.5231315626010E-01
 |       | 110111100 | 110111000 |       |    -1.5179565443040E-01
--------------------------------------------------
*** Contributions RASCI wfn    Active:  95.04
                                 Hole:   0.96
                                 Part:   4.00

      Mulliken population analysis 
 ---------------------------------------------------
   Atom    Charge (a.u.)   Spin (a.u.)  
 ---------------------------------------------------
   1  N    0.392544        0.763936 
   2  O   -0.196272        0.118032 
   3  O   -0.196272        0.118032 
 ---------------------------------------------------
   Sum:   -0.000000        1.000000 
 ---------------------------------------------------
 
  
 NATURAL OCCUPATION NUMBERS (higher than 1.0E-05)
            1           2           3           4           5           6
    1   1.9999996   1.9999995   1.9999990   1.9991262   1.9977011   1.9954733
            7           8           9          10          11          12
    1   1.9871032   1.9827652   1.9746202   1.9531157   1.4835001   1.2131688
           13          14          15          16          17          18
    1   0.3420566   0.0301928   0.0198886   0.0034650   0.0029110   0.0020791
           19          20          21          22          23          24
    1   0.0020419   0.0018671   0.0016525   0.0013357   0.0006975   0.0006871
           25          26          27          28          29          30
    1   0.0005779   0.0005594   0.0004868   0.0004571   0.0003826   0.0003429
           31          32          33          34          35          36
    1   0.0003364   0.0002668   0.0001997   0.0001990   0.0001600   0.0001433
           37          38          39          40          41          42
    1   0.0001060   0.0001029   0.0000929   0.0000652   0.0000481   0.0000180
  
*** Unpaired Electrons
 Yamaguchi Nd:         2.65
 Head-Gordon Nu:       1.83
 Head-Gordon Nu_nl:    1.84
  
**************************************************
 RAS-CI total energy for state  10:   -203.923468322209
  Excitation energy (eV) =  8.236143317894
  State symmetry: A1    (C2v      )
  <S^2>      :  0.7500
  Dipole Moment:    0.0000 X     0.0000 Y    -0.1029 Z
  Trans. Moment:    0.0000 X     0.0000 Y    -0.3169 Z
  Strength   :  0.020262
  Natural transition orbitals ( 1 -> 10 ):
   e-/hole pair  1 alpha:  ampl =  0.217538 (  4.7%)   [9 : 10]
   e-/hole pair  2 alpha:  ampl =  0.075089 (  0.6%)   [8 : 11]
   e-/hole pair  1 beta :  ampl =  0.837750 ( 70.2%)   [9 : 10]
   e-/hole pair  2 beta :  ampl =  0.096726 (  0.9%)   [8 : 11]
   Sum of square amplitudes: 0.78

 NATURAL OCCUPATION NUMBERS (higher than 1.0E-05)
            1           2           3           4           5           6
    1   1.9999996   1.9999994   1.9999984   1.9991830   1.9973160   1.9959245
            7           8           9          10          11          12
    1   1.9823195   1.8813526   1.8529296   1.8479398   1.7896557   1.2341747
           13          14          15          16          17          18
    1   0.3352100   0.0350626   0.0232380   0.0045545   0.0033778   0.0026914
           19          20          21          22          23          24
    1   0.0026429   0.0023006   0.0017530   0.0014954   0.0010734   0.0008024
           25          26          27          28          29          30
    1   0.0007189   0.0006219   0.0005633   0.0004362   0.0004314   0.0003408
           31          32          33          34          35          36
    1   0.0003354   0.0003227   0.0002022   0.0001888   0.0001828   0.0001639
           37          38          39          40          41          42
    1   0.0001366   0.0001009   0.0000875   0.0000711   0.0000668   0.0000223
Natural Orbitals stored in FCHK

  Amplitudes : 
  
 | HOLE  | ALPHA     | BETA      | PART  |    AMPLITUDE 
--------------------------------------------------
 |       | 111111000 | 111001100 |       |     2.2139891818626E-01
 |       | 111111000 | 110110100 |       |     1.0010076588990E-01
 |       | 111111000 | 101111000 |       |     8.2248270897023E-01
 |       | 111110100 | 110111000 |       |    -1.2285350867862E-01
 |       | 111101100 | 111100100 |       |     1.6530415104887E-01
 |       | 111101100 | 111011000 |       |     2.0795869483826E-01
 |       | 110111100 | 111110000 |       |    -2.2295427456843E-01
--------------------------------------------------
*** Contributions RASCI wfn    Active:  94.87
                                 Hole:   1.05
                                 Part:   4.08

      Mulliken population analysis 
 ---------------------------------------------------
   Atom    Charge (a.u.)   Spin (a.u.)  
 ---------------------------------------------------
   1  N    0.441102        0.501794 
   2  O   -0.220551        0.249103 
   3  O   -0.220551        0.249103 
 ---------------------------------------------------
   Sum:   -0.000000        1.000000 
 ---------------------------------------------------
 
  
 NATURAL OCCUPATION NUMBERS (higher than 1.0E-05)
            1           2           3           4           5           6
    1   1.9999996   1.9999994   1.9999984   1.9991830   1.9973160   1.9959245
            7           8           9          10          11          12
    1   1.9823195   1.8813526   1.8529296   1.8479398   1.7896557   1.2341747
           13          14          15          16          17          18
    1   0.3352100   0.0350626   0.0232380   0.0045545   0.0033778   0.0026914
           19          20          21          22          23          24
    1   0.0026429   0.0023006   0.0017530   0.0014954   0.0010734   0.0008024
           25          26          27          28          29          30
    1   0.0007189   0.0006219   0.0005633   0.0004362   0.0004314   0.0003408
           31          32          33          34          35          36
    1   0.0003354   0.0003227   0.0002022   0.0001888   0.0001828   0.0001639
           37          38          39          40          41          42
    1   0.0001366   0.0001009   0.0000875   0.0000711   0.0000668   0.0000223
  
*** Unpaired Electrons
 Yamaguchi Nd:         2.87
 Head-Gordon Nu:       1.84
 Head-Gordon Nu_nl:    1.56
  
--------------------------------------------------
 Interstate Transition Properties
--------------------------------------------------
State A: Root  1
State B: Root  2
  
Angular momentum components
< B | Lx | A > =    -0.938022236i
< B | Ly | A > =    -0.000000000i
< B | Lz | A > =    -0.000000000i
  
Norm of one-particle transition density matrix
||gamma^AB||_total       =  0.920729
||gamma^AB||_symmetrized =  0.654780
||gamma^AB||_anti-symm   =  0.647307
  
Spin-orbit couplings
 Using HF (reference) density for the 2-elec mean-field SOC contribution
KET: S',Sz' (Root   1) =  0.500 0.500
BRA: S ,Sz  (Root   2) =  0.500 0.500
Clebsh-Gordan coefficient: < 0.500, 0.500; 1.000, 0.000| 0.500, 0.500> = -0.577
 Computing 1e-SO integrals
 1e Reduced matrix elements (cm-1)
<S|| Hso(L-) ||S'> =     0.0000000001  -125.9299840936
<S|| Hso(L0) ||S'> =     0.0000000000     0.0000000000
<S|| Hso(L+) ||S'> =     0.0000000001   125.9299840936
 1-elec SOC matrix (cm-1): < B(S,Sz) | Hso(1e) | A(S',Sz') >
                     |Sz'=-0.50>              |Sz'= 0.50>
 <Sz=-0.50|    0.000000    0.000000i    -0.000000 -102.821401i
 <Sz= 0.50|    0.000000 -102.821401i     0.000000   -0.000000i
1-elec SOCC =   145.411420431 cm-1
 Computing 2e-SOMF integrals
 Averagin spin alpha/beta reference densities
 2e-SOMF Reduced matrix elements (cm-1)
<S|| Hso(L-) ||S'> =    -0.0000000000    48.3373982127
<S|| Hso(L0) ||S'> =     0.0000000000    -0.0000000000
<S|| Hso(L+) ||S'> =    -0.0000000000   -48.3373982127
 2-elec mean-field SOC matrix (cm-1): < B(S,Sz) | Hso(2e-mf) | A(S',Sz') >
                     |Sz'=-0.50>              |Sz'= 0.50>
 <Sz=-0.50|    0.000000   -0.000000i     0.000000   39.467320i
 <Sz= 0.50|   -0.000000   39.467320i    -0.000000    0.000000i
 Total mean-field SOC matrix (cm-1): < B(S,Sz) | Hsomf | A(S',Sz') >
                     |Sz'=-0.50>              |Sz'= 0.50>
 <Sz=-0.50|    0.000000    0.000000i    -0.000000  -63.354081i
 <Sz= 0.50|    0.000000  -63.354081i     0.000000   -0.000000i
Mean-Field SOCC =    89.596200691 cm-1
   
**************************************************
State A: Root  1
State B: Root  3
  
Angular momentum components
< B | Lx | A > =    -0.000000000i
< B | Ly | A > =     0.154479312i
< B | Lz | A > =    -0.000000000i
  
Norm of one-particle transition density matrix
||gamma^AB||_total       =  0.932247
||gamma^AB||_symmetrized =  0.706409
||gamma^AB||_anti-symm   =  0.608334
  
Spin-orbit couplings
 Using HF (reference) density for the 2-elec mean-field SOC contribution
KET: S',Sz' (Root   1) =  0.500 0.500
BRA: S ,Sz  (Root   3) =  0.500 0.500
Clebsh-Gordan coefficient: < 0.500, 0.500; 1.000, 0.000| 0.500, 0.500> = -0.577
 Reading 1e-SO integrals
 1e Reduced matrix elements (cm-1)
<S|| Hso(L-) ||S'> =   -69.5291134044    -0.0000000001
<S|| Hso(L0) ||S'> =     0.0000000000     0.0000000000
<S|| Hso(L+) ||S'> =   -69.5291134044     0.0000000001
 1-elec SOC matrix (cm-1): < B(S,Sz) | Hso(1e) | A(S',Sz') >
                     |Sz'=-0.50>              |Sz'= 0.50>
 <Sz=-0.50|    0.000000    0.000000i    56.770283   -0.000000i
 <Sz= 0.50|  -56.770283   -0.000000i    -0.000000   -0.000000i
1-elec SOCC =    80.285304681 cm-1
 Reading 2e-SOMF integrals
 2e-SOMF Reduced matrix elements (cm-1)
<S|| Hso(L-) ||S'> =    23.7711241814     0.0000000000
<S|| Hso(L0) ||S'> =     0.0000000000     0.0000000000
<S|| Hso(L+) ||S'> =    23.7711241814    -0.0000000000
 2-elec mean-field SOC matrix (cm-1): < B(S,Sz) | Hso(2e-mf) | A(S',Sz') >
                     |Sz'=-0.50>              |Sz'= 0.50>
 <Sz=-0.50|    0.000000    0.000000i   -19.409042    0.000000i
 <Sz= 0.50|   19.409042    0.000000i     0.000000   -0.000000i
 Total mean-field SOC matrix (cm-1): < B(S,Sz) | Hsomf | A(S',Sz') >
                     |Sz'=-0.50>              |Sz'= 0.50>
 <Sz=-0.50|    0.000000    0.000000i    37.361242   -0.000000i
 <Sz= 0.50|  -37.361242   -0.000000i    -0.000000   -0.000000i
Mean-Field SOCC =    52.836774791 cm-1
   
**************************************************
State A: Root  1
State B: Root  4
  
Angular momentum components
< B | Lx | A > =     0.000000000i
< B | Ly | A > =     0.000000000i
< B | Lz | A > =    -0.180491457i
  
Norm of one-particle transition density matrix
||gamma^AB||_total       =  0.922024
||gamma^AB||_symmetrized =  0.654143
||gamma^AB||_anti-symm   =  0.649789
  
Spin-orbit couplings
 Using HF (reference) density for the 2-elec mean-field SOC contribution
KET: S',Sz' (Root   1) =  0.500 0.500
BRA: S ,Sz  (Root   4) =  0.500 0.500
Clebsh-Gordan coefficient: < 0.500, 0.500; 1.000, 0.000| 0.500, 0.500> = -0.577
 Reading 1e-SO integrals
 1e Reduced matrix elements (cm-1)
<S|| Hso(L-) ||S'> =     0.0000000000    -0.0000000000
<S|| Hso(L0) ||S'> =     0.0000000000    21.8887585668
<S|| Hso(L+) ||S'> =     0.0000000000     0.0000000000
 1-elec SOC matrix (cm-1): < B(S,Sz) | Hso(1e) | A(S',Sz') >
                     |Sz'=-0.50>              |Sz'= 0.50>
 <Sz=-0.50|    0.000000   12.637481i    -0.000000   -0.000000i
 <Sz= 0.50|    0.000000   -0.000000i     0.000000  -12.637481i
1-elec SOCC =    17.872096531 cm-1
 Reading 2e-SOMF integrals
 2e-SOMF Reduced matrix elements (cm-1)
<S|| Hso(L-) ||S'> =    -0.0000000000     0.0000000000
<S|| Hso(L0) ||S'> =     0.0000000000    -7.1940832782
<S|| Hso(L+) ||S'> =    -0.0000000000    -0.0000000000
 2-elec mean-field SOC matrix (cm-1): < B(S,Sz) | Hso(2e-mf) | A(S',Sz') >
                     |Sz'=-0.50>              |Sz'= 0.50>
 <Sz=-0.50|    0.000000   -4.153506i     0.000000    0.000000i
 <Sz= 0.50|   -0.000000    0.000000i    -0.000000    4.153506i
 Total mean-field SOC matrix (cm-1): < B(S,Sz) | Hsomf | A(S',Sz') >
                     |Sz'=-0.50>              |Sz'= 0.50>
 <Sz=-0.50|    0.000000    8.483975i     0.000000   -0.000000i
 <Sz= 0.50|   -0.000000   -0.000000i    -0.000000   -8.483975i
Mean-Field SOCC =    11.998152131 cm-1
   
**************************************************
State A: Root  1
State B: Root  5
  
Angular momentum components
< B | Lx | A > =    -0.000000000i
< B | Ly | A > =    -0.000146164i
< B | Lz | A > =     0.000000000i
  
Norm of one-particle transition density matrix
||gamma^AB||_total       =  0.769785
||gamma^AB||_symmetrized =  0.620758
||gamma^AB||_anti-symm   =  0.455224
  
Spin-orbit couplings
 Using HF (reference) density for the 2-elec mean-field SOC contribution
KET: S',Sz' (Root   1) =  0.500 0.500
BRA: S ,Sz  (Root   5) =  1.500 0.500
Clebsh-Gordan coefficient: < 0.500, 0.500; 1.000, 0.000| 1.500, 0.500> =  0.816
 Reading 1e-SO integrals
 1e Reduced matrix elements (cm-1)
<S|| Hso(L-) ||S'> =    -1.9913793354    -0.0000000000
<S|| Hso(L0) ||S'> =     0.0000000000     0.0000000000
<S|| Hso(L+) ||S'> =    -1.9913793354     0.0000000000
 1-elec SOC matrix (cm-1): < B(S,Sz) | Hso(1e) | A(S',Sz') >
                     |Sz'=-0.50>              |Sz'= 0.50>
 <Sz=-1.50|   -1.991379    0.000000i     0.000000    0.000000i
 <Sz=-0.50|    0.000000    0.000000i    -1.149723    0.000000i
 <Sz= 0.50|   -1.149723   -0.000000i    -0.000000    0.000000i
 <Sz= 1.50|    0.000000    0.000000i    -1.991379   -0.000000i
1-elec SOCC =     3.251908837 cm-1
 Reading 2e-SOMF integrals
 2e-SOMF Reduced matrix elements (cm-1)
<S|| Hso(L-) ||S'> =     0.9646709110     0.0000000000
<S|| Hso(L0) ||S'> =     0.0000000000     0.0000000000
<S|| Hso(L+) ||S'> =     0.9646709110    -0.0000000000
 2-elec mean-field SOC matrix (cm-1): < B(S,Sz) | Hso(2e-mf) | A(S',Sz') >
                     |Sz'=-0.50>              |Sz'= 0.50>
 <Sz=-1.50|    0.964671   -0.000000i     0.000000    0.000000i
 <Sz=-0.50|   -0.000000    0.000000i     0.556953   -0.000000i
 <Sz= 0.50|    0.556953    0.000000i     0.000000    0.000000i
 <Sz= 1.50|    0.000000    0.000000i     0.964671    0.000000i
 Total mean-field SOC matrix (cm-1): < B(S,Sz) | Hsomf | A(S',Sz') >
                     |Sz'=-0.50>              |Sz'= 0.50>
 <Sz=-1.50|   -1.026708    0.000000i     0.000000    0.000000i
 <Sz=-0.50|    0.000000    0.000000i    -0.592770    0.000000i
 <Sz= 0.50|   -0.592770   -0.000000i    -0.000000    0.000000i
 <Sz= 1.50|    0.000000    0.000000i    -1.026708   -0.000000i
Mean-Field SOCC =     1.676607836 cm-1
   
**************************************************
State A: Root  1
State B: Root  6
  
Angular momentum components
< B | Lx | A > =    -0.000000000i
< B | Ly | A > =     0.000000000i
< B | Lz | A > =    -0.476876171i
  
Norm of one-particle transition density matrix
||gamma^AB||_total       =  0.899239
||gamma^AB||_symmetrized =  0.629607
||gamma^AB||_anti-symm   =  0.642048
  
Spin-orbit couplings
 Using HF (reference) density for the 2-elec mean-field SOC contribution
KET: S',Sz' (Root   1) =  0.500 0.500
BRA: S ,Sz  (Root   6) =  0.500 0.500
Clebsh-Gordan coefficient: < 0.500, 0.500; 1.000, 0.000| 0.500, 0.500> = -0.577
 Reading 1e-SO integrals
 1e Reduced matrix elements (cm-1)
<S|| Hso(L-) ||S'> =     0.0000000000    -0.0000000000
<S|| Hso(L0) ||S'> =     0.0000000000    -6.9814538439
<S|| Hso(L+) ||S'> =     0.0000000000     0.0000000000
 1-elec SOC matrix (cm-1): < B(S,Sz) | Hso(1e) | A(S',Sz') >
                     |Sz'=-0.50>              |Sz'= 0.50>
 <Sz=-0.50|    0.000000   -4.030744i    -0.000000   -0.000000i
 <Sz= 0.50|    0.000000   -0.000000i     0.000000    4.030744i
1-elec SOCC =     5.700333193 cm-1
 Reading 2e-SOMF integrals
 2e-SOMF Reduced matrix elements (cm-1)
<S|| Hso(L-) ||S'> =    -0.0000000000     0.0000000000
<S|| Hso(L0) ||S'> =     0.0000000000     2.3347700153
<S|| Hso(L+) ||S'> =    -0.0000000000    -0.0000000000
 2-elec mean-field SOC matrix (cm-1): < B(S,Sz) | Hso(2e-mf) | A(S',Sz') >
                     |Sz'=-0.50>              |Sz'= 0.50>
 <Sz=-0.50|    0.000000    1.347980i     0.000000    0.000000i
 <Sz= 0.50|   -0.000000    0.000000i    -0.000000   -1.347980i
 Total mean-field SOC matrix (cm-1): < B(S,Sz) | Hsomf | A(S',Sz') >
                     |Sz'=-0.50>              |Sz'= 0.50>
 <Sz=-0.50|    0.000000   -2.682764i    -0.000000   -0.000000i
 <Sz= 0.50|    0.000000   -0.000000i     0.000000    2.682764i
Mean-Field SOCC =     3.794001459 cm-1
   
**************************************************
State A: Root  1
State B: Root  7
  
Angular momentum components
< B | Lx | A > =    -0.000000000i
< B | Ly | A > =     0.048437782i
< B | Lz | A > =    -0.000000000i
  
Norm of one-particle transition density matrix
||gamma^AB||_total       =  0.558257
||gamma^AB||_symmetrized =  0.440965
||gamma^AB||_anti-symm   =  0.342345
  
Spin-orbit couplings
 Using HF (reference) density for the 2-elec mean-field SOC contribution
KET: S',Sz' (Root   1) =  0.500 0.500
BRA: S ,Sz  (Root   7) =  0.500 0.500
Clebsh-Gordan coefficient: < 0.500, 0.500; 1.000, 0.000| 0.500, 0.500> = -0.577
 Reading 1e-SO integrals
 1e Reduced matrix elements (cm-1)
<S|| Hso(L-) ||S'> =   -17.7377412219    -0.0000000000
<S|| Hso(L0) ||S'> =     0.0000000000    -0.0000000000
<S|| Hso(L+) ||S'> =   -17.7377412219     0.0000000000
 1-elec SOC matrix (cm-1): < B(S,Sz) | Hso(1e) | A(S',Sz') >
                     |Sz'=-0.50>              |Sz'= 0.50>
 <Sz=-0.50|    0.000000   -0.000000i    14.482805   -0.000000i
 <Sz= 0.50|  -14.482805   -0.000000i    -0.000000    0.000000i
1-elec SOCC =    20.481779339 cm-1
 Reading 2e-SOMF integrals
 2e-SOMF Reduced matrix elements (cm-1)
<S|| Hso(L-) ||S'> =     6.6376102658     0.0000000000
<S|| Hso(L0) ||S'> =     0.0000000000     0.0000000000
<S|| Hso(L+) ||S'> =     6.6376102658    -0.0000000000
 2-elec mean-field SOC matrix (cm-1): < B(S,Sz) | Hso(2e-mf) | A(S',Sz') >
                     |Sz'=-0.50>              |Sz'= 0.50>
 <Sz=-0.50|    0.000000    0.000000i    -5.419586    0.000000i
 <Sz= 0.50|    5.419586    0.000000i     0.000000   -0.000000i
 Total mean-field SOC matrix (cm-1): < B(S,Sz) | Hsomf | A(S',Sz') >
                     |Sz'=-0.50>              |Sz'= 0.50>
 <Sz=-0.50|    0.000000   -0.000000i     9.063219   -0.000000i
 <Sz= 0.50|   -9.063219   -0.000000i    -0.000000    0.000000i
Mean-Field SOCC =    12.817327191 cm-1
   
**************************************************
State A: Root  1
State B: Root  8
  
Angular momentum components
< B | Lx | A > =    -0.000000000i
< B | Ly | A > =    -0.000000000i
< B | Lz | A > =    -0.142496300i
  
Norm of one-particle transition density matrix
||gamma^AB||_total       =  0.519058
||gamma^AB||_symmetrized =  0.363895
||gamma^AB||_anti-symm   =  0.370137
  
Spin-orbit couplings
 Using HF (reference) density for the 2-elec mean-field SOC contribution
KET: S',Sz' (Root   1) =  0.500 0.500
BRA: S ,Sz  (Root   8) =  0.500 0.500
Clebsh-Gordan coefficient: < 0.500, 0.500; 1.000, 0.000| 0.500, 0.500> = -0.577
 Reading 1e-SO integrals
 1e Reduced matrix elements (cm-1)
<S|| Hso(L-) ||S'> =    -0.0000000000     0.0000000000
<S|| Hso(L0) ||S'> =     0.0000000000    73.8023271062
<S|| Hso(L+) ||S'> =    -0.0000000000    -0.0000000000
 1-elec SOC matrix (cm-1): < B(S,Sz) | Hso(1e) | A(S',Sz') >
                     |Sz'=-0.50>              |Sz'= 0.50>
 <Sz=-0.50|    0.000000   42.609793i     0.000000    0.000000i
 <Sz= 0.50|   -0.000000    0.000000i    -0.000000  -42.609793i
1-elec SOCC =    60.259347747 cm-1
 Reading 2e-SOMF integrals
 2e-SOMF Reduced matrix elements (cm-1)
<S|| Hso(L-) ||S'> =     0.0000000000    -0.0000000000
<S|| Hso(L0) ||S'> =     0.0000000000   -26.8772086435
<S|| Hso(L+) ||S'> =     0.0000000000     0.0000000000
 2-elec mean-field SOC matrix (cm-1): < B(S,Sz) | Hso(2e-mf) | A(S',Sz') >
                     |Sz'=-0.50>              |Sz'= 0.50>
 <Sz=-0.50|    0.000000  -15.517564i    -0.000000   -0.000000i
 <Sz= 0.50|    0.000000   -0.000000i     0.000000   15.517564i
 Total mean-field SOC matrix (cm-1): < B(S,Sz) | Hsomf | A(S',Sz') >
                     |Sz'=-0.50>              |Sz'= 0.50>
 <Sz=-0.50|    0.000000   27.092230i     0.000000    0.000000i
 <Sz= 0.50|   -0.000000    0.000000i    -0.000000  -27.092230i
Mean-Field SOCC =    38.314198784 cm-1
   
**************************************************
State A: Root  1
State B: Root  9
  
Angular momentum components
< B | Lx | A > =    -0.143907679i
< B | Ly | A > =     0.000000000i
< B | Lz | A > =    -0.000000000i
  
Norm of one-particle transition density matrix
||gamma^AB||_total       =  0.835761
||gamma^AB||_symmetrized =  0.593189
||gamma^AB||_anti-symm   =  0.588747
  
Spin-orbit couplings
 Using HF (reference) density for the 2-elec mean-field SOC contribution
KET: S',Sz' (Root   1) =  0.500 0.500
BRA: S ,Sz  (Root   9) =  0.500 0.500
Clebsh-Gordan coefficient: < 0.500, 0.500; 1.000, 0.000| 0.500, 0.500> = -0.577
 Reading 1e-SO integrals
 1e Reduced matrix elements (cm-1)
<S|| Hso(L-) ||S'> =     0.0000000000    30.1758694764
<S|| Hso(L0) ||S'> =     0.0000000000    -0.0000000000
<S|| Hso(L+) ||S'> =     0.0000000000   -30.1758694764
 1-elec SOC matrix (cm-1): < B(S,Sz) | Hso(1e) | A(S',Sz') >
                     |Sz'=-0.50>              |Sz'= 0.50>
 <Sz=-0.50|    0.000000   -0.000000i    -0.000000   24.638494i
 <Sz= 0.50|    0.000000   24.638494i     0.000000    0.000000i
1-elec SOCC =    34.844092730 cm-1
 Reading 2e-SOMF integrals
 2e-SOMF Reduced matrix elements (cm-1)
<S|| Hso(L-) ||S'> =    -0.0000000000    -9.3879750312
<S|| Hso(L0) ||S'> =     0.0000000000     0.0000000000
<S|| Hso(L+) ||S'> =    -0.0000000000     9.3879750312
 2-elec mean-field SOC matrix (cm-1): < B(S,Sz) | Hso(2e-mf) | A(S',Sz') >
                     |Sz'=-0.50>              |Sz'= 0.50>
 <Sz=-0.50|    0.000000    0.000000i     0.000000   -7.665250i
 <Sz= 0.50|   -0.000000   -7.665250i    -0.000000   -0.000000i
 Total mean-field SOC matrix (cm-1): < B(S,Sz) | Hsomf | A(S',Sz') >
                     |Sz'=-0.50>              |Sz'= 0.50>
 <Sz=-0.50|    0.000000   -0.000000i    -0.000000   16.973245i
 <Sz= 0.50|    0.000000   16.973245i     0.000000    0.000000i
Mean-Field SOCC =    24.003792908 cm-1
   
**************************************************
State A: Root  1
State B: Root 10
  
Angular momentum components
< B | Lx | A > =    -0.000000000i
< B | Ly | A > =    -0.000000000i
< B | Lz | A > =     0.000000000i
  
Norm of one-particle transition density matrix
||gamma^AB||_total       =  0.881233
||gamma^AB||_symmetrized =  0.653516
||gamma^AB||_anti-symm   =  0.591176
  
Spin-orbit couplings
 Using HF (reference) density for the 2-elec mean-field SOC contribution
KET: S',Sz' (Root   1) =  0.500 0.500
BRA: S ,Sz  (Root  10) =  0.500 0.500
Clebsh-Gordan coefficient: < 0.500, 0.500; 1.000, 0.000| 0.500, 0.500> = -0.577
 Reading 1e-SO integrals
 1e Reduced matrix elements (cm-1)
<S|| Hso(L-) ||S'> =     0.0000000000     0.0000000001
<S|| Hso(L0) ||S'> =     0.0000000000     0.0000000001
<S|| Hso(L+) ||S'> =     0.0000000000    -0.0000000001
 1-elec SOC matrix (cm-1): < B(S,Sz) | Hso(1e) | A(S',Sz') >
                     |Sz'=-0.50>              |Sz'= 0.50>
 <Sz=-0.50|    0.000000    0.000000i    -0.000000    0.000000i
 <Sz= 0.50|    0.000000    0.000000i     0.000000   -0.000000i
1-elec SOCC =     0.000000000 cm-1
 Reading 2e-SOMF integrals
 2e-SOMF Reduced matrix elements (cm-1)
<S|| Hso(L-) ||S'> =    -0.0000000000    -0.0000000000
<S|| Hso(L0) ||S'> =     0.0000000000    -0.0000000000
<S|| Hso(L+) ||S'> =    -0.0000000000     0.0000000000
 2-elec mean-field SOC matrix (cm-1): < B(S,Sz) | Hso(2e-mf) | A(S',Sz') >
                     |Sz'=-0.50>              |Sz'= 0.50>
 <Sz=-0.50|    0.000000   -0.000000i     0.000000   -0.000000i
 <Sz= 0.50|   -0.000000   -0.000000i    -0.000000    0.000000i
 Total mean-field SOC matrix (cm-1): < B(S,Sz) | Hsomf | A(S',Sz') >
                     |Sz'=-0.50>              |Sz'= 0.50>
 <Sz=-0.50|    0.000000    0.000000i    -0.000000    0.000000i
 <Sz= 0.50|    0.000000    0.000000i     0.000000   -0.000000i
Mean-Field SOCC =     0.000000000 cm-1
   
**************************************************
State A: Root  2
State B: Root  1
  
Angular momentum components
< B | Lx | A > =     0.938022236i
< B | Ly | A > =     0.000000000i
< B | Lz | A > =     0.000000000i
  
Norm of one-particle transition density matrix
||gamma^AB||_total       =  0.920729
||gamma^AB||_symmetrized =  0.654780
||gamma^AB||_anti-symm   =  0.647307
  
Spin-orbit couplings
 Using HF (reference) density for the 2-elec mean-field SOC contribution
KET: S',Sz' (Root   2) =  0.500 0.500
BRA: S ,Sz  (Root   1) =  0.500 0.500
Clebsh-Gordan coefficient: < 0.500, 0.500; 1.000, 0.000| 0.500, 0.500> = -0.577
 Reading 1e-SO integrals
 1e Reduced matrix elements (cm-1)
<S|| Hso(L-) ||S'> =    -0.0000000001   125.9299840936
<S|| Hso(L0) ||S'> =     0.0000000000    -0.0000000000
<S|| Hso(L+) ||S'> =    -0.0000000001  -125.9299840936
 1-elec SOC matrix (cm-1): < B(S,Sz) | Hso(1e) | A(S',Sz') >
                     |Sz'=-0.50>              |Sz'= 0.50>
 <Sz=-0.50|    0.000000   -0.000000i     0.000000  102.821401i
[...]
    20    1.414806598377e-15
    21   -7.546476265921e-15
    22   -1.853400170225e-16
    23   -1.001016074512e-01
    24   -3.092684450622e-15
    25   -3.048506733099e-15
    26   -5.534047060781e-18
    27   -1.250773619629e-15
    28   -7.857892433156e-02
    29   -2.382012685118e-15
    30   -2.572205213957e-02
    31    2.385634779089e-16
    32   -1.398587964444e-15
    33    2.401772322373e-15
    34   -1.831747123592e-01
    35   -4.083259776066e-16
    36    1.111137596611e-14
    37   -2.446182834496e-15
    38   -1.001016074512e-01
    39    1.467340915772e-15
    40    1.515039264738e-15
    41   -1.235369117936e-15
    42    5.220822146204e-16
    43    7.857892433156e-02
    44   -1.395095461902e-15
    45   -2.572205213957e-02
Sym=X
Ene= 0.833927
Spin=Alpha
Occup=0
     1    9.080111122028e-16
     2    1.991355019136e-14
     3   -8.849646530914e-01
     4   -1.196817499790e-14
     5   -1.177629109781e-14
     6   -4.516428410076e-14
     7    1.544016296197e+00
     8    1.635304691886e-14
     9    3.182142004278e-14
    10    5.199020498753e-15
    11   -2.977547162764e-16
    12    3.790933206060e-15
    13    5.068729546692e-16
    14   -1.433185622784e-01
    15    5.204984075428e-16
    16    2.884190019713e-02
    17    3.280149433963e-03
    18   -2.369987413409e-01
    19   -4.320700997363e-15
    20   -2.059394711973e-02
    21    5.663906910600e-01
    22    5.093535754907e-02
    23    9.750395432083e-16
    24    4.793047512105e-02
    25    1.556683122865e-01
    26   -2.968636280562e-02
    27    2.614850945976e-02
    28   -1.066663131150e-15
    29    1.227213121010e-01
    30   -6.527152444177e-16
    31   -2.884190019713e-02
    32   -3.280149433953e-03
    33   -2.369987413409e-01
    34   -8.677113460803e-16
    35    2.059394711972e-02
    36   -5.663906910600e-01
    37    5.093535754907e-02
    38   -3.328460205111e-15
    39   -4.793047512106e-02
    40   -1.556683122865e-01
    41    2.968636280563e-02
    42   -2.614850945976e-02
    43    1.043911890026e-15
    44    1.227213121010e-01
    45   -1.255869106176e-16
Sym=X
Ene= 1.019185
Spin=Alpha
Occup=0
     1   -5.616701766555e-02
     2   -2.921054715701e-01
     3   -6.217968976397e-15
     4   -8.623714022483e-16
     5    2.148265167085e-01
     6   -7.379453509913e-01
     7   -1.266852977517e-14
     8   -1.361876054857e-15
     9    1.254462230338e-02
    10   -4.106427129144e-01
    11    5.959986081312e-02
    12   -6.501531481352e-02
    13   -9.657400427870e-16
    14    7.747647832318e-16
    15    1.058544102132e-15
    16   -3.567215341986e-03
    17    2.050277139172e-01
    18   -5.080074564307e-01
    19    2.012105432891e-15
    20   -2.917413542758e-02
    21    3.656645391042e-04
    22    9.883842126403e-01
    23   -1.011215917047e-15
    24    3.214006295462e-01
    25    1.731865707358e-01
    26    9.171915989754e-02
    27    9.724450133769e-02
    28   -6.565591686941e-17
    29    3.037644416423e-02
    30    2.234946055999e-16
    31   -3.567215341990e-03
    32    2.050277139171e-01
    33    5.080074564307e-01
    34    1.901578861065e-16
    35   -2.917413542758e-02
    36    3.656645392664e-04
    37   -9.883842126403e-01
    38    1.731148340576e-15
    39    3.214006295462e-01
    40    1.731865707358e-01
    41    9.171915989752e-02
    42    9.724450133766e-02
    43   -1.108441419413e-15
    44   -3.037644416423e-02
    45    4.086996695371e-16
Sym=X
Ene= 1.069606
Spin=Alpha
Occup=0
     1   -6.090425313398e-16
     2    3.378324048835e-15
     3   -8.215110229050e-02
     4   -1.134680994826e-15
     5    5.662279228337e-16
     6   -4.221067431834e-14
     7    6.105185483673e-01
     8    4.608204209892e-15
     9    1.743495573350e-14
    10   -1.903978066047e-15
    11    5.813543106378e-17
    12    8.186665576996e-16
    13    5.103620131336e-16
    14    1.964131110389e-01
    15   -2.363894164972e-16
    16   -2.149821164988e-02
    17   -4.407823924620e-01
    18    4.153508148737e-01
    19    6.410473667422e-15
    20    3.584792683284e-01
    21    1.129768068684e+00
    22   -4.659293898462e-01
    23   -8.236312268631e-15
    24   -2.317076793322e-01
    25   -1.788079687976e-01
    26   -1.617394784688e-01
    27   -2.059528850243e-01
    28   -1.209347266627e-15
    29   -2.477525921499e-02
    30    8.043528499382e-16
    31    2.149821164988e-02
    32    4.407823924620e-01
    33    4.153508148738e-01
    34    1.336227839948e-15
    35   -3.584792683283e-01
    36   -1.129768068684e+00
    37   -4.659293898463e-01
    38   -2.957022094617e-15
    39    2.317076793322e-01
    40    1.788079687976e-01
    41    1.617394784688e-01
    42    2.059528850243e-01
    43    4.228390198825e-17
    44   -2.477525921499e-02
    45    1.025095942411e-15
Sym=X
Ene= 1.143856
Spin=Alpha
Occup=0
     1    1.500706954773e-02
     2    1.992990856809e-01
     3    2.173762165704e-15
     4    3.162421811275e-15
     5   -2.024743483897e-01
     6   -5.926464144929e-01
     7   -1.889239580313e-14
     8   -3.366907039679e-15
     9    9.913350821980e-01
    10    1.617127586878e-01
    11   -5.205716609023e-02
    12    5.666860012882e-04
    13   -1.957938598561e-14
    14    2.084150395512e-15
    15    7.184684093507e-16
    16   -2.953387400032e-03
    17   -7.675023212809e-03
    18   -2.158627675707e-01
    19    8.991401335315e-14
    20    5.727901819323e-01
    21    3.401199000909e-01
    22    3.713371845330e-01
    23   -1.121841940035e-13
    24   -9.068864578942e-01
    25    4.677089581673e-03
    26   -6.005937972760e-02
    27    1.773565622656e-02
    28    6.533008671490e-15
    29    5.484009989449e-03
    30    1.038876024293e-15
    31   -2.953387400033e-03
    32   -7.675023212846e-03
    33    2.158627675707e-01
    34   -9.632267695459e-14
    35    5.727901819323e-01
    36    3.401199000910e-01
    37   -3.713371845330e-01
    38    1.184919486872e-13
    39   -9.068864578942e-01
    40    4.677089581661e-03
    41   -6.005937972761e-02
    42    1.773565622654e-02
    43    6.866766214642e-15
    44   -5.484009989452e-03
    45   -3.175981854125e-16
Sym=X
Ene= 1.158687
Spin=Alpha
Occup=0
     1    2.192449761346e-15
     2    2.984660923447e-14
     3   -4.927589199847e-16
     4    5.143575645771e-15
     5   -2.837266392906e-14
     6   -9.353682551949e-14
     7    1.267734326172e-14
     8   -1.635095736098e-14
     9    1.431789344136e-13
    10    2.313938232090e-14
    11   -6.491327618564e-15
    12    3.510500940154e-16
    13    1.336979796538e-01
    14    4.086922593678e-15
    15   -2.100562149332e-15
    16   -7.020385510994e-16
    17   -3.189861302943e-15
    18   -2.390930131916e-14
    19   -6.565281297110e-01
    20    7.147984840732e-14
    21    6.211261434241e-14
    22    4.646814580343e-14
    23    8.109001161062e-01
    24   -1.128434111770e-13
    25    8.887136689512e-16
    26   -9.683259863554e-15
    27    4.212354878874e-16
    28   -4.211191126667e-02
    29   -2.864525441970e-16
    30   -1.355594122991e-03
    31   -2.770555846637e-16
    32    2.192877595059e-15
    33    3.981554438641e-14
    34    6.565281297110e-01
    35    9.150253632789e-14
    36    3.925371521228e-14
    37   -6.566502658209e-14
    38   -8.109001161062e-01
    39   -1.446387732347e-13
    40    1.396075116217e-15
    41   -6.965713168694e-15
    42    5.184184001469e-15
    43   -4.211191126667e-02
    44   -2.430423100623e-15
    45    1.355594122988e-03
Sym=X
Ene= 1.216678
Spin=Alpha
Occup=0
     1   -1.176470152989e-17
     2    6.434462199876e-16
     3    1.053346516090e-13
     4    2.680179969218e-01
     5    8.762369576339e-16
     6   -8.229307107338e-15
     7   -5.543470517136e-13
     8   -9.390777376631e-01
     9   -1.007974101071e-15
    10   -1.598859929785e-15
    11    8.813664519789e-16
    12    5.494310853588e-16
    13   -3.531640897794e-15
    14   -1.214987331538e-13
    15   -2.597801045467e-02
    16   -9.043578017639e-17
    17   -2.984197485149e-14
    18   -2.117254196712e-13
    19   -6.446858429030e-01
    20    3.984915906662e-13
    21   -2.009222210295e-13
    22    3.071850229665e-13
    23    1.001385266861e+00
    24   -6.024465195421e-13
    25   -6.647773672783e-14
    26    1.678057815983e-14
    27    3.885643077418e-14
    28   -1.515223106478e-02
    29    3.946557861071e-14
    30   -4.786452535629e-02
    31   -1.914206396201e-16
    32    2.893858292119e-14
    33   -2.123317633878e-13
    34   -6.446858429030e-01
    35   -4.031926591941e-13
    36    2.088271443713e-13
    37    3.034258227494e-13
    38    1.001385266861e+00
    39    6.114831959362e-13
    40    6.688268715384e-14
    41   -1.803210820036e-14
    42   -3.917536633755e-14
    43    1.515223106478e-02
    44    4.013231627600e-14
    45   -4.786452535629e-02
Sym=X
Ene= 1.211555
Spin=Alpha
Occup=0
     1    9.915575204998e-17
     2    7.892808501386e-15
     3    1.407762847402e-01
     4   -1.998786597366e-13
     5   -2.274054544916e-15
     6   -8.886359965434e-14
     7   -7.332897192293e-01
     8    7.023026812768e-13
     9    3.325562276311e-14
    10   -1.969421048426e-15
    11    9.867282392147e-16
    12    3.738075607990e-15
    13    2.381374969938e-15
    14   -1.647649384153e-01
    15    1.949421278291e-14
    16   -1.133351346562e-06
    17   -3.825255617776e-02
    18   -2.864698906485e-01
    19    4.696323000460e-13
    20    5.312030895343e-01
    21   -2.701816029173e-01
    22    4.148890212400e-01
    23   -7.335232625686e-13
    24   -8.045997621044e-01
    25   -8.875604455194e-02
    26    2.339022216367e-02
    27    5.338035626352e-02
    28    1.097300994072e-14
    29    5.350662473426e-02
    30    3.565347490067e-14
    31    1.133351343749e-06
    32    3.825255617772e-02
    33   -2.864698906485e-01
    34    4.975993449446e-13
    35   -5.312030895343e-01
    36    2.701816029175e-01
    37    4.148890212399e-01
    38   -7.677541319284e-13
    39    8.045997621044e-01
    40    8.875604455193e-02
    41   -2.339022216368e-02
    42   -5.338035626353e-02
    43   -1.365354431111e-14
    44    5.350662473426e-02
    45    3.479639970221e-14
Sym=X
Ene= 1.502006
Spin=Alpha
Occup=0
     1   -1.021471783581e-02
     2   -6.022163518021e-01
     3   -6.196001275165e-15
     4    1.674391605619e-16
     5   -7.692850983836e-02
     6    4.940574874621e+00
     7    1.738103788438e-13
     8    7.745568777521e-16
     9   -1.303077935447e+00
    10    1.729830954970e-01
    11    1.881359890990e-01
    12   -4.522355391456e-01
    13   -1.775643158881e-15
    14   -1.809759179412e-14
    15   -2.613675621282e-15
    16    7.064605168239e-02
    17    9.940549535483e-01
    18    1.423900610999e-01
    19   -1.625050830903e-15
    20    2.932713380409e-02
    21   -3.629169693709e+00
    22   -1.463377742809e+00
    23   -2.087241048210e-16
    24   -4.088502434546e-01
    25    1.892881838601e-01
    26    4.848669651576e-01
    27    1.531473805901e-01
    28   -2.224341010044e-16
    29    1.072513049302e-01
    30   -1.442314665016e-15
    31    7.064605168240e-02
    32    9.940549535484e-01
    33   -1.423900610999e-01
    34   -1.229745104438e-15
    35    2.932713380411e-02
    36   -3.629169693710e+00
    37    1.463377742810e+00
    38    6.204603582866e-16
    39   -4.088502434547e-01
    40    1.892881838602e-01
    41    4.848669651577e-01
    42    1.531473805901e-01
    43   -1.777552140746e-15
    44   -1.072513049302e-01
    45   -1.307276966870e-15
Sym=X
Ene= 1.636231
Spin=Alpha
Occup=0
     1    9.095624842896e-17
     2    6.493154423100e-16
     3   -2.080217508560e-14
     4   -6.776134098950e-15
     5    1.176665628542e-15
     6    4.954343593659e-15
     7    4.568311741598e-13
     8    4.832654124462e-15
     9   -1.285124934041e-15
    10    1.017839743882e-15
    11   -1.425055059258e-15
    12    6.781607243001e-16
    13    5.807450995348e-01
    14   -2.358138483884e-14
    15   -3.448887226444e-14
    16   -8.929269678883e-15
    17   -1.432982574269e-13
    18   -3.035615589280e-14
    19    1.857016752080e-01
    20   -2.386490731316e-14
    21    5.426393118102e-13
    22    1.791661370242e-13
    23    2.350339750643e-02
    24    1.281603986506e-13
    25   -4.483364313213e-14
    26   -2.059923085700e-14
    27   -4.644104196164e-14
    28   -3.093469575001e-01
    29   -6.056496178705e-15
    30   -2.610026976352e-01
    31    8.632900378887e-15
    32    1.485954224048e-13
    33   -3.055058311598e-14
    34   -1.857016752080e-01
    35    2.688620873083e-14
    36   -5.522014854499e-13
    37    1.827948265450e-13
    38   -2.350339750644e-02
    39   -1.329981241880e-13
    40    4.513728374787e-14
    41    2.005182790962e-14
    42    4.637367759764e-14
    43   -3.093469575001e-01
    44   -5.102169152398e-15
    45    2.610026976351e-01
Sym=X
Ene= 1.647713
Spin=Alpha
Occup=0
     1    4.826519057023e-15
     2    4.055235499643e-14
     3    1.836623521297e-01
     4    2.743903611863e-14
     5   -3.013315810585e-14
     6   -5.469199475560e-13
     7   -3.758728806165e+00
     8   -2.853785204400e-14
     9    1.965516378114e-13
    10   -1.250709545409e-14
    11    1.505242924334e-13
    12   -1.141831185291e-13
    13    6.941400428258e-14
    14    1.714040815582e-01
    15    1.125501721548e-13
    16    7.100390059730e-02
    17    1.217250938523e+00
    18    2.578473156963e-01
    19    2.611156174538e-14
    20    2.032581572446e-01
    21   -4.515947759324e+00
    22   -1.484761183632e+00
    23    2.337510564638e-14
    24   -1.068822662581e+00
    25    3.664688165208e-01
    26    1.482991821535e-01
    27    4.075373572672e-01
    28   -8.348009269551e-14
    29    5.202104822963e-02
    30    7.419412562152e-15
    31   -7.100390059731e-02
    32   -1.217250938523e+00
    33    2.578473156963e-01
    34   -1.607582826897e-14
    35   -2.032581572447e-01
    36    4.515947759325e+00
    37   -1.484761183632e+00
    38    1.524992304443e-14
    39    1.068822662581e+00
    40   -3.664688165209e-01
    41   -1.482991821535e-01
    42   -4.075373572673e-01
    43    9.837202993724e-15
    44    5.202104822951e-02
    45    7.318983038197e-14
Sym=X
Ene= 1.649258
Spin=Alpha
Occup=0
     1   -1.363345176091e-16
     2   -8.051653529504e-15
     3   -2.941114109610e-14
     4    1.782873379054e-01
     5    1.486255126471e-15
     6    6.501157280476e-14
     7    5.894098957154e-13
     8   -1.927464870247e-01
     9   -2.314576111021e-14
    10    1.512374547658e-15
    11   -4.877590294721e-15
    12    2.429097405413e-15
    13    2.965920093427e-14
    14   -2.870231880677e-14
    15    7.137038196902e-01
    16   -1.020144971252e-14
    17   -1.806797844198e-13
    18   -3.916747652906e-14
    19    2.331435320205e-02
    20   -3.185598973514e-14
    21    6.638818150835e-13
    22    2.140230430941e-13
    23    1.347835806429e-01
    24    1.653532159898e-13
    25   -5.271502938216e-14
    26   -2.214606182228e-14
    27   -6.067274624538e-14
    28   -2.924913459606e-01
    29   -1.074135859281e-14
    30    2.538493253004e-01
    31    1.177198570710e-14
    32    2.045430973422e-13
    33   -4.440491644980e-14
    34    2.331435320204e-02
    35    3.176297417534e-14
    36   -7.563324604426e-13
    37    2.565210391357e-13
    38    1.347835806429e-01
    39   -1.684411979487e-13
    40    6.079609260993e-14
    41    2.335081301826e-14
    42    6.889398690699e-14
    43    2.924913459606e-01
    44   -6.947133846049e-15
    45    2.538493253004e-01
Sym=X
Ene= 1.719624
Spin=Alpha
Occup=0
     1    2.260460281762e-03
     2   -4.454474876390e-01
     3    4.491419582658e-14
     4   -1.612150087536e-15
     5    1.876964657969e-01
     6    3.458714411844e+00
     7   -7.294261498689e-13
     8    8.501505892107e-16
     9   -1.129055922639e+00
    10    1.897228258770e-03
    11   -4.718626652373e-01
    12    4.953710204276e-01
    13   -6.855064934238e-16
    14    2.220728073490e-14
    15   -9.245465589392e-15
    16    3.865325592779e-02
    17    6.986636059898e-01
    18    1.197755270670e-01
    19   -5.341846396710e-16
    20    8.974885306699e-02
    21   -2.499536694743e+00
    22   -1.113994928973e+00
    23   -6.830815346711e-16
    24   -1.646835096851e-01
    25    3.465414520500e-01
    26   -5.696567654523e-03
    27    1.318991387027e-01
    28    4.850346124798e-15
    29   -2.792952496495e-01
    30   -3.116331674463e-15
    31    3.865325592777e-02
    32    6.986636059894e-01
    33   -1.197755270669e-01
    34    1.556508058757e-15
    35    8.974885306691e-02
    36   -2.499536694741e+00
    37    1.113994928972e+00
    38   -2.408041103115e-15
    39   -1.646835096847e-01
    40    3.465414520498e-01
    41   -5.696567654535e-03
    42    1.318991387025e-01
    43    1.709823948625e-16
    44    2.792952496496e-01
    45   -2.574424336016e-16
Sym=X
Ene= 1.992736
Spin=Alpha
Occup=0
     1   -3.508683083801e-15
     2   -1.659831413462e-15
     3    1.190696917327e-02
     4    1.460373142740e-15
     5   -1.412824073515e-14
     6    7.526242462218e-14
     7    1.668749057612e+00
     8    1.752069552702e-15
     9   -3.631127543547e-14
    10    2.684072719152e-14
    11   -1.284817477146e-14
    12   -2.550091668513e-14
    13   -1.582694775784e-15
    14   -3.545183913124e-01
    15    7.049208754291e-15
    16   -2.026526231513e-02
    17   -2.410270795033e-01
    18    1.581430210861e-01
    19    2.398700022323e-15
    20   -4.402943852380e-02
    21    1.512421967016e+00
    22    3.771435447654e-01
    23   -3.306345339805e-15
    24    3.949244113095e-01
    25   -1.111719247520e-01
    26   -5.349184952882e-01
    27    5.344882750521e-01
    28   -2.459875260458e-14
    29   -1.291966421850e-01
    30    2.841826027076e-14
    31    2.026526231513e-02
    32    2.410270795033e-01
    33    1.581430210862e-01
    34   -2.174878913189e-15
    35    4.402943852377e-02
    36   -1.512421967016e+00
    37    3.771435447654e-01
    38    3.452897906572e-15
    39   -3.949244113095e-01
    40    1.111719247520e-01
    41    5.349184952882e-01
    42   -5.344882750520e-01
    43   -2.330690275037e-14
    44   -1.291966421850e-01
    45   -4.867702629194e-14
Sym=X
Ene= 2.020873
Spin=Alpha
Occup=0
     1    1.242986207723e-15
     2    1.902863841656e-15
     3    1.161233818277e-15
     4   -2.913811787499e-15
     5    1.253671518060e-16
     6   -1.271380953086e-14
     7   -9.412378951684e-14
     8   -4.931232753332e-15
     9    5.489004163146e-15
    10   -7.718794267770e-16
    11    2.669705805718e-15
    12    7.945735236372e-15
    13    5.080868277829e-03
    14    1.587735071723e-14
    15    7.716090764740e-16
    16    1.637077956433e-15
    17    2.156217036964e-14
    18   -2.288605528768e-15
    19    4.612817160684e-02
    20    3.112505761216e-15
    21   -9.658959988897e-14
    22   -2.817592267575e-14
    23   -5.176729160107e-02
    24   -2.279842559755e-14
    25    5.653506564810e-15
    26    4.564223135669e-14
    27   -3.452601979764e-14
    28   -4.163853287366e-01
    29    1.226213036834e-14
    30    5.728468781286e-01
    31   -1.900779872238e-15
    32   -1.990600756946e-14
    33   -5.358812934226e-15
    34   -4.612817160684e-02
    35    5.299187979911e-16
    36    1.046509042589e-13
    37   -2.832730725672e-14
    38    5.176729160108e-02
    39    1.929676535626e-14
    40   -4.714507939629e-15
    41   -3.863111452874e-14
    42    2.601558890901e-14
    43   -4.163853287366e-01
    44    1.802482762229e-14
    45   -5.728468781286e-01

======= END OF MOLDEN-FORMATTED INPUT FILE =======


        *************************************************************
        *                                                           *
        *  Thank you very much for using Q-Chem.  Have a nice day.  *
        *                                                           *
        *************************************************************


