                  Welcome to Q-Chem
     A Quantum Leap Into The Future Of Chemistry


 Q-Chem 6.0 (devel), Q-Chem, Inc., Pleasanton, CA (2022)

 E. Epifanovsky,  A. T. B. Gilbert,  Xintian Feng,  Joonho Lee,  Yuezhi Mao,  
 N. Mardirossian,  P. Pokhilko,  A. White,  M. Wormit,  M. P. Coons,  
 A. L. Dempwolff,  Zhengting Gan,  D. Hait,  P. R. Horn,  L. D. Jacobson,  
 I. Kaliman,  J. Kussmann,  A. W. Lange,  Ka Un Lao,  D. S. Levine,  Jie Liu,  
 S. C. McKenzie,  A. F. Morrison,  K. Nanda,  F. Plasser,  D. R. Rehn,  
 M. L. Vidal,  Zhi-Qiang You,  Ying Zhu,  B. Alam,  B. Albrecht,  
 A. Aldossary,  E. Alguire,  J. H. Andersen,  V. Athavale,  D. Barton,  
 K. Begam,  A. Behn,  N. Bellonzi,  Y. A. Bernard,  E. J. Berquist,  
 H. Burton,  A. Carreras,  K. Carter-Fenk,  Romit Chakraborty,  
 Chandrima Chakravarty,  Junhan Chen,  A. D. Chien,  K. D. Closser,  
 V. Cofer-Shabica,  L. Cunha,  S. Dasgupta,  Jia Deng,  M. de Wergifosse,  
 M. Diedenhofen,  Hainam Do,  S. Ehlert,  Po-Tung Fang,  S. Fatehi,  
 Qingguo Feng,  T. Friedhoff,  B. Ganoe,  J. Gayvert,  Qinghui Ge,  
 G. Gidofalvi,  M. Goldey,  J. Gomes,  C. Gonzalez-Espinoza,  S. Gulania,  
 A. Gunina,  J. A. Gyamfi,  M. W. D. Hanson-Heine,  P. H. P. Harbach,  
 A. W. Hauser,  M. F. Herbst,  M. Hernandez Vera,  M. Hodecker,  
 Z. C. Holden,  S. Houck,  Xunkun Huang,  Kerwin Hui,  B. C. Huynh,  
 K. Ikeda,  M. Ivanov,  Hyunjun Ji,  Zuxin Jin,  Hanjie Jiang,  B. Kaduk,  
 S. Kaehler,  R. Kang,  K. Khistyaev,  Jaehoon Kim,  Yongbin Kim,  
 P. Klunzinger,  Z. Koczor-Benda,  Joong Hoon Koh,  D. Kosenkov,  
 Saikiran Kotaru,  L. Koulias,  T. Kowalczyk,  C. M. Krauter,  K. Kue,  
 A. Kunitsa,  T. Kus,  A. Landau,  K. V. Lawler,  D. Lefrancois,  S. Lehtola,  
 Rain Li,  Shaozhi Li,  Yi-Pei Li,  Jiashu Liang,  M. Liebenthal,  
 Hung-Hsuan Lin,  You-Sheng Lin,  Fenglai Liu,  Kuan-Yu Liu,  
 M. Loipersberger,  A. Luenser,  C. Malbon,  A. Manjanath,  P. Manohar,  
 E. Mansoor,  S. F. Manzer,  Shan-Ping Mao,  A. V. Marenich,  T. Markovich,  
 S. Mason,  F. Matz,  S. A. Maurer,  P. F. McLaughlin,  M. F. S. J. Menger,  
 J.-M. Mewes,  S. A. Mewes,  P. Morgante,  Mohammad Mostafanejad,  
 J. W. Mullinax,  K. J. Oosterbaan,  G. Paran,  V. Parravicini,  
 Alexander C. Paul,  Suranjan K. Paul,  F. Pavosevic,  Zheng Pei,  S. Prager,  
 E. I. Proynov,  E. Ramos,  B. Rana,  A. E. Rask,  A. Rettig,  R. M. Richard,  
 F. Rob,  E. Rossomme,  T. Scheele,  M. Scheurer,  M. Schneider,  
 P. E. Schneider,  N. Sergueev,  S. M. Sharada,  Hengyuan Shen,  
 W. Skomorowski,  D. W. Small,  C. J. Stein,  Yingli Su,  Yu-Chuan Su,  
 E. J. Sundstrom,  Zhen Tao,  J. Thirman,  Hung-Yi Tsai,  T. Tsuchimochi,  
 N. M. Tubman,  C. Utku,  S. P. Veccham,  O. Vydrov,  J. Wenzel,  
 Jonathan Wong,  J. Witte,  A. Yamada,  Chou-Hsun Yang,  Kun Yao,  
 S. Yeganeh,  S. R. Yost,  A. Zech,  F. Zeller,  Igor Ying Zhang,  
 Xing Zhang,  Yu Zhang,  D. Zuev,  A. Aspuru-Guzik,  A. T. Bell,  
 N. A. Besley,  K. B. Bravaya,  B. R. Brooks,  D. Casanova,  Jeng-Da Chai,  
 Hsing-Ta Chen,  S. Coriani,  C. J. Cramer,  A. E. DePrince, III,  
 R. A. DiStasio Jr.,  A. Dreuw,  B. D. Dunietz,  T. R. Furlani,  
 W. A. Goddard III,  S. Grimme,  S. Hammes-Schiffer,  T. Head-Gordon,  
 W. J. Hehre,  Chao-Ping Hsu,  T.-C. Jagau,  Yousung Jung,  A. Klamt,  
 Jing Kong,  D. S. Lambrecht,  Xiangyuan Li,  WanZhen Liang,  N. J. Mayhall,  
 C. W. McCurdy,  J. B. Neaton,  T. Neudecker,  C. Ochsenfeld,  
 J. A. Parkhill,  R. Peverati,  V. A. Rassolov,  Haisheng Ren,  Yihan Shao,  
 L. V. Slipchenko,  R. P. Steele,  J. E. Subotnik,  A. J. W. Thom,  
 A. Tkatchenko,  D. G. Truhlar,  T. Van Voorhis,  Fan Wang,  
 T. A. Wesolowski,  K. B. Whaley,  H. L. Woodcock III,  P. M. Zimmerman,  
 S. Faraji,  P. M. W. Gill,  M. Head-Gordon,  J. M. Herbert,  A. I. Krylov

 Contributors to earlier versions of Q-Chem not listed above: 
 R. D. Adamson,  B. Austin,  R. Baer,  J. Baker,  G. J. O. Beran,  
 K. Brandhorst,  S. T. Brown,  E. F. C. Byrd,  Arup K. Chakraborty,  
 G. K. L. Chan,  Chun-Min Chang,  Yunqing Chen,  C.-L. Cheng,  
 Siu Hung Chien,  D. M. Chipman,  D. L. Crittenden,  H. Dachsel,  
 R. J. Doerksen,  A. D. Dutoi,  R. G. Edgar,  J. Fosso-Tande,  
 L. Fusti-Molnar,  D. Ghosh,  A. Ghysels,  A. Golubeva-Zadorozhnaya,  
 J. Gonthier,  M. S. Gordon,  S. R. Gwaltney,  G. Hawkins,  J. E. Herr,  
 A. Heyden,  S. Hirata,  E. G. Hohenstein,  G. Kedziora,  F. J. Keil,  
 C. Kelley,  Jihan Kim,  R. A. King,  R. Z. Khaliullin,  P. P. Korambath,  
 W. Kurlancheek,  A. Laurent,  A. M. Lee,  M. S. Lee,  S. V. Levchenko,  
 Ching Yeh Lin,  D. Liotard,  E. Livshits,  R. C. Lochan,  I. Lotan,  
 L. A. Martinez-Martinez,  P. E. Maslen,  N. Nair,  D. P. O'Neill,  
 D. Neuhauser,  E. Neuscamman,  C. M. Oana,  R. Olivares-Amaya,  R. Olson,  
 T. M. Perrine,  B. Peters,  P. A. Pieniazek,  A. Prociuk,  Y. M. Rhee,  
 J. Ritchie,  M. A. Rohrdanz,  E. Rosta,  N. J. Russ,  H. F. Schaefer III,  
 M. W. Schmidt,  N. E. Schultz,  S. Sharma,  N. Shenvi,  C. D. Sherrill,  
 A. C. Simmonett,  A. Sodt,  T. Stein,  D. Stuck,  K. S. Thanthiriwatte,  
 V. Vanovschi,  L. Vogt,  Tao Wang,  A. Warshel,  M. A. Watson,  
 C. F. Williams,  Q. Wu,  X. Xu,  Jun Yang,  W. Zhang,  Yan Zhao

   Please cite Q-Chem as follows:
  "Software for the frontiers of quantum chemistry:
   An overview of developments in the Q-Chem 5 package"
   J. Chem. Phys. 155, 084801 (2021)
   https://doi.org/10.1063/5.0055522 (open access)

 Q-Chem 6.0.1 for Intel X86 EM64T Linux

 Parts of Q-Chem use Armadillo 9.900.5 (Nocturnal Misbehaviour).
 http://arma.sourceforge.net/

 Q-Chem begins on Thu Dec 22 13:03:43 2022  

 Host: atlas-163
0

     Scratch files written to ./qchem74178//
 Processing $rem in /scratch/abel/SOFTWARE/qchem/config/preferences:
 Processing $rem in /dipc/acebg/.qchemrc:

 Checking the input file for inconsistencies... 	...done.

--------------------------------------------------------------
User input:
--------------------------------------------------------------
$comment
 SCF CALCULATION
$end

$molecule
 READ no2.molecule
$end

$rem
!**CALCULATION TYPE***
METHOD             HF
BASIS              6-31G*

!***SCF REFERENCE***
SKIP_SCFMAN        FALSE
UNRESTRICTED       FALSE
!SCF_GUESS          core
!SCF_GUESS_MIX      FALSE
MAX_SCF_CYCLES     999
SCF_CONVERGENCE    8
!SCF_ALGORITHM      DIIS !DIIS,DM,DIIS_DM,GDM,DIIS_GDM,GD

SYMMETRY           TRUE !use of symmetry for calculating integrals
SYM_IGNORE         FALSE !turn off using symmetry
SYM_TOL            5 !tolerance for determining point group

THRESH             14
!SCF_PRINT          0 !0,1,2,3

!****MEMORY****
MEM_TOTAL          60000 !Default 2000 MB
MEM_STATIC         2000  !Default 64 MB

!**Molecular Properties and Analysis **
POP_MULLIKEN       FALSE   !Run Mulliken population analysis
LOWDIN_POPULATION  FALSE  !Run Löwdin population analysis
GUI                2
!STATE_ANALYSIS     TRUE
MOLDEN_FORMAT      TRUE
PRINT_ORBITALS     10
$end

--------------------------------------------------------------
 ----------------------------------------------------------------
             Standard Nuclear Orientation (Angstroms)
    I     Atom           X                Y                Z
 ----------------------------------------------------------------
    1      N      -0.0000000000     0.0000000000     0.3240267236
    2      O      -1.1048267521    -0.0000000000    -0.1417616916
    3      O       1.1048267521     0.0000000000    -0.1417616916
 ----------------------------------------------------------------
 Molecular Point Group                 C2v   NOp =  4
 Largest Abelian Subgroup              C2v   NOp =  4
 Nuclear Repulsion Energy =          64.75805752 hartrees
 There are       12 alpha and       11 beta electrons
 Requested basis set is 6-31G(d)
 There are 12 shells and 45 basis functions

 Total QAlloc Memory Limit  60000 MB
 Mega-Array Size      1956 MB
 MEM_STATIC part      2000 MB


                       Distance Matrix (Angstroms)
             N (  1)   O (  2)
   O (  2)  1.199000
   O (  3)  1.199000  2.209654
 
 A cutoff of  1.0D-14 yielded     77 shell pairs
 There are      1115 function pairs
 Smallest overlap matrix eigenvalue = 4.68E-03

 Scale SEOQF with 1.000000e+00/1.000000e+00/1.000000e+00

 Standard Electronic Orientation quadrupole field applied
 Nucleus-field energy     =     0.0000000058 hartrees
 Guess from superposition of atomic densities
 Warning:  Energy on first SCF cycle will be non-variational
 SAD guess density has 23.000000 electrons

 -----------------------------------------------------------------------
  General SCF calculation program by
  Eric Jon Sundstrom, Paul Horn, Yuezhi Mao, Dmitri Zuev, Alec White,
  David Stuck, Shaama M.S., Shane Yost, Joonho Lee, David Small,
  Daniel Levine, Susi Lehtola, Hugh Burton, Evgeny Epifanovsky,
  Bang C. Huynh
 -----------------------------------------------------------------------
 Hartree-Fock
 Orthonormalizing orbitals
 A restricted open-shell SCF calculation will be
 performed using GDM
 SCF converges when RMS gradient is below 1.0e-08
 ---------------------------------------
  Cycle       Energy        RMS Gradient
 ---------------------------------------
    1    -203.1810133953      6.51e-01   Descent step
    2    -203.6232969617      3.26e-01   Descent step
    3    -203.8779285203      1.98e-01   Descent step
    4    -203.9931539261      6.24e-02   Normal BFGS step
    5    -204.0172779734      1.28e-02   Normal BFGS step
    6    -204.0179502753      7.89e-03   Normal BFGS step
    7    -204.0180505853      3.43e-03   Normal BFGS step
    8    -204.0180678669      1.05e-03   Normal BFGS step
    9    -204.0180709911      5.85e-04   Normal BFGS step
   10    -204.0180714931      2.40e-04   Normal BFGS step
   11    -204.0180716024      4.23e-05   Normal BFGS step
   12    -204.0180716132      1.54e-05   Normal BFGS step
   13    -204.0180716138      2.67e-06   Normal BFGS step
   14    -204.0180716138      4.12e-07   Normal BFGS step
   15    -204.0180716138      8.25e-08   Normal BFGS step
   16    -204.0180716138      2.56e-08   Normal BFGS step
   17    -204.0180716138      4.84e-09  Convergence criterion met
The disked orbital energies are calculated using alpha and beta Focks
 ---------------------------------------
 SCF time:   CPU 1.01s  wall 3.00s 
<S^2> =          0.750000000
 SCF   energy in the final basis set =     -204.0180716138
 Total energy in the final basis set =     -204.0180716138
 
 --------------------------------------------------------------
             Orbital Energies (a.u.) and Symmetries
 --------------------------------------------------------------
 
 Alpha MOs, Restricted
 -- Doubly Occupied --           
-20.697 -20.697 -15.896  -1.674  -1.495  -0.946  -0.794  -0.828
  1 B1    1 A1    2 A1    3 A1    2 B1    4 A1    3 B1    5 A1                 
 -0.761  -0.590  -0.528
  1 B2    4 B1    1 A2                                                         
 -- Singly Occupied (Occupied) --
 -0.504
  6 A1                                                                         
 -- Virtual --                   
  0.077   0.437   0.559   0.753   0.803   0.834   0.834   1.019
  2 B2    7 A1    5 B1    8 A1    9 A1    3 B2    6 B1   10 A1                 
  1.070   1.144   1.159   1.217   1.212   1.502   1.636   1.648
  7 B1   11 A1    2 A2    4 B2    8 B1   12 A1    3 A2    9 B1                 
  1.649   1.720   1.993   2.021   2.102   2.137   2.133   2.509
  5 B2   13 A1   10 B1    4 A2   14 A1   11 B1    6 B2   15 A1                 
  2.646   2.993   3.030   3.049   3.148   3.213   3.812   4.036
  7 B2   12 B1   16 A1    5 A2   13 B1   17 A1   18 A1   14 B1                 
  4.107
 19 A1                                                                         
 
 Beta MOs, Restricted
 -- Doubly Occupied --           
-20.687 -20.687 -15.875  -1.636  -1.458  -0.883  -0.750  -0.719
  1 B1    1 A1    2 A1    3 A1    2 B1    4 A1    3 B1    5 A1                 
 -0.745  -0.503  -0.518
  1 B2    4 B1    1 A2                                                         
 -- Singly Occupied (Vacant) --  
  0.040
  6 A1                                                                         
 -- Virtual --                   
  0.105   0.455   0.605   0.796   0.839   0.844   0.853   1.029
  2 B2    7 A1    5 B1    8 A1    9 A1    3 B2    6 B1   10 A1                 
  1.101   1.179   1.164   1.223   1.235   1.523   1.645   1.666
  7 B1   11 A1    2 A2    4 B2    8 B1   12 A1    3 A2    9 B1                 
  1.681   1.758   2.016   2.035   2.138   2.150   2.167   2.532
  5 B2   13 A1   10 B1    4 A2   14 A1   11 B1    6 B2   15 A1                 
  2.658   3.035   3.055   3.063   3.161   3.232   3.835   4.045
  7 B2   12 B1   16 A1    5 A2   13 B1   17 A1   18 A1   14 B1                 
  4.129
 19 A1                                                                         
 --------------------------------------------------------------
 

                        RESTRICTED (RHF) MOLECULAR ORBITAL COEFFICIENTS
                         1         2         3         4         5         6
 eigenvalues:        -20.697   -20.697   -15.896    -1.674    -1.495    -0.946
   1  N     s        0.00000   0.00007   0.99528  -0.15170  -0.00000   0.12733
   2  N     s        0.00000   0.00058   0.02356   0.34652  -0.00000  -0.33186
   3  N     px      -0.00009   0.00000   0.00000  -0.00000   0.31063   0.00000
   4  N     py      -0.00000   0.00000  -0.00000  -0.00000  -0.00000   0.00000
   5  N     pz       0.00000   0.00010  -0.00155  -0.10308  -0.00000  -0.00223
   6  N     s       -0.00000  -0.00062   0.00008   0.11902  -0.00000  -0.30334
   7  N     px       0.00029  -0.00000   0.00000   0.00000  -0.00013   0.00000
   8  N     py       0.00000   0.00000  -0.00000  -0.00000  -0.00000   0.00000
   9  N     pz       0.00000   0.00019   0.00033  -0.00260  -0.00000   0.00618
  10  N     dxx     -0.00000  -0.00136  -0.00215   0.03519  -0.00000  -0.00532
  11  N     dxy     -0.00000  -0.00000   0.00000  -0.00000   0.00000   0.00000
  12  N     dyy      0.00000   0.00010  -0.00365  -0.01356   0.00000   0.00117
  13  N     dxz     -0.00053   0.00000  -0.00000  -0.00000  -0.03372   0.00000
  14  N     dyz      0.00000  -0.00000  -0.00000  -0.00000   0.00000  -0.00000
  15  N     dzz     -0.00000  -0.00007  -0.00326  -0.00481   0.00000   0.00029
  16  O 1   s        0.70343   0.70343  -0.00024  -0.11476   0.14460  -0.11233
  17  O 1   s        0.01483   0.01482   0.00016   0.26266  -0.32710   0.25979
  18  O 1   px       0.00123   0.00129   0.00002   0.11278  -0.08785  -0.23261
  19  O 1   py      -0.00000   0.00000   0.00000   0.00000  -0.00000  -0.00000
  20  O 1   pz       0.00047   0.00057   0.00004   0.03329  -0.04532  -0.10836
  21  O 1   s        0.00254   0.00284  -0.00008   0.18975  -0.30429   0.38721
  22  O 1   px      -0.00026   0.00001  -0.00039   0.04515  -0.04861  -0.09674
  23  O 1   py      -0.00000  -0.00000  -0.00000  -0.00000  -0.00000  -0.00000
  24  O 1   pz      -0.00017   0.00008  -0.00028   0.01227  -0.02693  -0.05346
  25  O 1   dxx     -0.00248  -0.00246  -0.00043   0.02328  -0.01182  -0.01866
  26  O 1   dxy      0.00000   0.00000   0.00000   0.00000   0.00000   0.00000
  27  O 1   dyy     -0.00271  -0.00281   0.00011  -0.00073   0.00350   0.00503
  28  O 1   dxz     -0.00007   0.00027  -0.00031   0.00796  -0.01164  -0.01378
  29  O 1   dyz     -0.00000   0.00000   0.00000   0.00000   0.00000   0.00000
  30  O 1   dzz     -0.00273  -0.00254  -0.00011  -0.00165  -0.00276   0.00131
  31  O 2   s       -0.70343   0.70343  -0.00024  -0.11476  -0.14460  -0.11233
  32  O 2   s       -0.01483   0.01482   0.00016   0.26266   0.32710   0.25979
  33  O 2   px       0.00123  -0.00129  -0.00002  -0.11278  -0.08785   0.23261
  34  O 2   py      -0.00000   0.00000   0.00000   0.00000  -0.00000  -0.00000
  35  O 2   pz      -0.00047   0.00057   0.00004   0.03329   0.04532  -0.10836
  36  O 2   s       -0.00254   0.00284  -0.00008   0.18975   0.30429   0.38721
  37  O 2   px      -0.00026  -0.00001   0.00039  -0.04515  -0.04861   0.09674
  38  O 2   py       0.00000  -0.00000   0.00000  -0.00000  -0.00000  -0.00000
  39  O 2   pz       0.00017   0.00008  -0.00028   0.01227   0.02693  -0.05346
  40  O 2   dxx      0.00248  -0.00246  -0.00043   0.02328   0.01182  -0.01866
  41  O 2   dxy     -0.00000  -0.00000   0.00000  -0.00000   0.00000  -0.00000
  42  O 2   dyy      0.00271  -0.00281   0.00011  -0.00073  -0.00350   0.00503
  43  O 2   dxz     -0.00007  -0.00027   0.00031  -0.00796  -0.01164   0.01378
  44  O 2   dyz      0.00000   0.00000   0.00000   0.00000  -0.00000   0.00000
  45  O 2   dzz      0.00273  -0.00254  -0.00011  -0.00165   0.00276   0.00131
                         7         8         9        10        11        12
 eigenvalues:         -0.794    -0.828    -0.761    -0.590    -0.528    -0.504
   1  N     s        0.00000  -0.03390   0.00000   0.00000   0.00000  -0.07254
   2  N     s       -0.00000   0.07776  -0.00000  -0.00000   0.00000   0.16228
   3  N     px       0.38683   0.00000   0.00000   0.01392   0.00000   0.00000
   4  N     py      -0.00000   0.00000   0.41300  -0.00000   0.00000  -0.00000
   5  N     pz      -0.00000   0.38639  -0.00000   0.00000   0.00000   0.50953
   6  N     s       -0.00000   0.13181  -0.00000   0.00000  -0.00000   0.50777
   7  N     px       0.08850   0.00000   0.00000  -0.07517   0.00000   0.00000
   8  N     py      -0.00000   0.00000   0.20796  -0.00000   0.00000  -0.00000
   9  N     pz      -0.00000   0.16230  -0.00000   0.00000   0.00000   0.26419
  10  N     dxx     -0.00000   0.02925  -0.00000  -0.00000  -0.00000  -0.06424
  11  N     dxy     -0.00000   0.00000   0.00000   0.00000  -0.06246  -0.00000
  12  N     dyy     -0.00000   0.00384  -0.00000  -0.00000   0.00000   0.00403
  13  N     dxz     -0.01626  -0.00000  -0.00000  -0.04930  -0.00000  -0.00000
  14  N     dyz      0.00000  -0.00000  -0.02454   0.00000  -0.00000  -0.00000
  15  N     dzz      0.00000  -0.03238   0.00000  -0.00000  -0.00000   0.02955
  16  O 1   s       -0.07239  -0.01107  -0.00000   0.00411  -0.00000   0.01630
  17  O 1   s        0.16824   0.02164  -0.00000  -0.00412   0.00000  -0.04720
  18  O 1   px      -0.30989  -0.19835   0.00000  -0.25617  -0.00000  -0.04834
  19  O 1   py      -0.00000   0.00000   0.32893  -0.00000   0.45969   0.00000
  20  O 1   pz      -0.17970   0.28880  -0.00000   0.40562   0.00000  -0.36281
  21  O 1   s        0.27912   0.04709   0.00000  -0.05410   0.00000  -0.07005
  22  O 1   px      -0.16552  -0.11472   0.00000  -0.19528  -0.00000  -0.03568
  23  O 1   py      -0.00000   0.00000   0.19571  -0.00000   0.34719   0.00000
  24  O 1   pz      -0.09735   0.17385  -0.00000   0.27681   0.00000  -0.30396
  25  O 1   dxx     -0.02006  -0.02447   0.00000  -0.01697  -0.00000  -0.01017
  26  O 1   dxy     -0.00000   0.00000   0.03232  -0.00000   0.02506  -0.00000
  27  O 1   dyy      0.00873   0.00201  -0.00000   0.00243  -0.00000   0.00147
  28  O 1   dxz     -0.02137   0.01428  -0.00000   0.01412   0.00000  -0.00381
  29  O 1   dyz     -0.00000   0.00000   0.01370  -0.00000   0.01060  -0.00000
  30  O 1   dzz     -0.00120   0.01645  -0.00000   0.01689  -0.00000   0.00185
  31  O 2   s        0.07239  -0.01107   0.00000  -0.00411   0.00000   0.01630
  32  O 2   s       -0.16824   0.02164  -0.00000   0.00412   0.00000  -0.04720
  33  O 2   px      -0.30989   0.19835  -0.00000  -0.25617  -0.00000   0.04834
  34  O 2   py      -0.00000   0.00000   0.32893   0.00000  -0.45969   0.00000
  35  O 2   pz       0.17970   0.28880  -0.00000  -0.40562  -0.00000  -0.36281
  36  O 2   s       -0.27912   0.04709  -0.00000   0.05410   0.00000  -0.07005
  37  O 2   px      -0.16552   0.11472  -0.00000  -0.19528  -0.00000   0.03568
  38  O 2   py      -0.00000   0.00000   0.19571   0.00000  -0.34719   0.00000
  39  O 2   pz       0.09735   0.17385  -0.00000  -0.27681  -0.00000  -0.30396
  40  O 2   dxx      0.02006  -0.02447   0.00000   0.01697   0.00000  -0.01017
  41  O 2   dxy      0.00000  -0.00000  -0.03232  -0.00000   0.02506   0.00000
  42  O 2   dyy     -0.00873   0.00201  -0.00000  -0.00243  -0.00000   0.00147
  43  O 2   dxz     -0.02137  -0.01428   0.00000   0.01412   0.00000   0.00381
  44  O 2   dyz     -0.00000   0.00000   0.01370   0.00000  -0.01060  -0.00000
  45  O 2   dzz      0.00120   0.01645  -0.00000  -0.01689  -0.00000   0.00185
                        13        14        15        16        17        18
 eigenvalues:          0.077     0.437     0.559     0.753     0.803     0.834
   1  N     s       -0.00000  -0.12092  -0.00000   0.00321   0.01588   0.00000
   2  N     s        0.00000   0.15614   0.00000  -1.02060  -0.50302  -0.00000
   3  N     px       0.00000  -0.00000   0.33882   0.00000   0.00000   0.00000
   4  N     py       0.54379  -0.00000  -0.00000   0.00000   0.00000  -0.89069
   5  N     pz       0.00000  -0.34691  -0.00000  -0.41353   0.69193   0.00000
   6  N     s        0.00000   2.54343   0.00000   1.19190   1.69527   0.00000
   7  N     px       0.00000  -0.00000   3.11264  -0.00000  -0.00000  -0.00000
   8  N     py       0.59737   0.00000   0.00000  -0.00000  -0.00000   1.22487
   9  N     pz       0.00000  -1.07852  -0.00000   0.67486  -1.39874  -0.00000
  10  N     dxx     -0.00000  -0.05999  -0.00000  -0.22633   0.15842   0.00000
  11  N     dxy      0.00000   0.00000   0.00000   0.00000  -0.00000   0.00000
  12  N     dyy      0.00000   0.01366   0.00000  -0.20041  -0.09197  -0.00000
  13  N     dxz     -0.00000   0.00000  -0.01566   0.00000   0.00000   0.00000
  14  N     dyz      0.01194   0.00000  -0.00000   0.00000  -0.00000   0.04926
  15  N     dzz      0.00000  -0.01614   0.00000  -0.19608  -0.12906  -0.00000
  16  O 1   s        0.00000   0.07755  -0.07837  -0.01567  -0.00670  -0.00000
  17  O 1   s       -0.00000  -0.19856   0.16823  -0.25179  -0.16143  -0.00000
  18  O 1   px      -0.00000  -0.32198   0.06092   0.07966   0.13716   0.00000
  19  O 1   py      -0.34356  -0.00000  -0.00000  -0.00000   0.00000  -0.18317
  20  O 1   pz      -0.00000   0.00751   0.17751   0.01995   0.21644   0.00000
  21  O 1   s       -0.00000  -1.09825   2.01502   0.42973  -0.44006  -0.00000
  22  O 1   px      -0.00000  -0.93920   0.98204   0.17193  -0.45497  -0.00000
  23  O 1   py      -0.40697   0.00000   0.00000   0.00000   0.00000  -0.10010
  24  O 1   pz      -0.00000  -0.07504   0.73673  -0.06854  -0.04679  -0.00000
  25  O 1   dxx     -0.00000  -0.02100   0.05836  -0.09272  -0.24652  -0.00000
  26  O 1   dxy      0.01212  -0.00000  -0.00000  -0.00000   0.00000  -0.07858
  27  O 1   dyy      0.00000   0.00404   0.00467  -0.07404  -0.00779   0.00000
  28  O 1   dxz     -0.00000  -0.01919   0.01995  -0.06045  -0.05119  -0.00000
  29  O 1   dyz      0.00759  -0.00000  -0.00000  -0.00000   0.00000  -0.02572
  30  O 1   dzz      0.00000  -0.02901  -0.00760  -0.10770  -0.02631  -0.00000
  31  O 2   s        0.00000   0.07755   0.07837  -0.01567  -0.00670   0.00000
  32  O 2   s       -0.00000  -0.19856  -0.16823  -0.25179  -0.16143  -0.00000
  33  O 2   px       0.00000   0.32198   0.06092  -0.07966  -0.13716   0.00000
  34  O 2   py      -0.34356  -0.00000   0.00000   0.00000   0.00000  -0.18317
  35  O 2   pz      -0.00000   0.00751  -0.17751   0.01995   0.21644  -0.00000
  36  O 2   s       -0.00000  -1.09825  -2.01502   0.42973  -0.44006   0.00000
  37  O 2   px       0.00000   0.93920   0.98204  -0.17193   0.45497  -0.00000
  38  O 2   py      -0.40697  -0.00000  -0.00000  -0.00000   0.00000  -0.10010
  39  O 2   pz      -0.00000  -0.07504  -0.73673  -0.06854  -0.04679   0.00000
  40  O 2   dxx     -0.00000  -0.02100  -0.05836  -0.09272  -0.24652   0.00000
  41  O 2   dxy     -0.01212  -0.00000   0.00000  -0.00000  -0.00000   0.07858
  42  O 2   dyy      0.00000   0.00404  -0.00467  -0.07404  -0.00779  -0.00000
  43  O 2   dxz      0.00000   0.01919   0.01995   0.06045   0.05119  -0.00000
  44  O 2   dyz      0.00759   0.00000   0.00000   0.00000  -0.00000  -0.02572
  45  O 2   dzz      0.00000  -0.02901   0.00760  -0.10770  -0.02631   0.00000
                        19        20        21        22
 eigenvalues:          0.834     1.019     1.070     1.144
   1  N     s        0.00000  -0.05617  -0.00000   0.01501
   2  N     s       -0.00000  -0.29211  -0.00000   0.19930
   3  N     px      -0.88496   0.00000  -0.08215   0.00000
   4  N     py      -0.00000  -0.00000   0.00000   0.00000
   5  N     pz       0.00000   0.21483   0.00000  -0.20247
   6  N     s        0.00000  -0.73795   0.00000  -0.59265
   7  N     px       1.54402  -0.00000   0.61052  -0.00000
   8  N     py       0.00000   0.00000   0.00000  -0.00000
   9  N     pz      -0.00000   0.01254  -0.00000   0.99134
  10  N     dxx      0.00000  -0.41064  -0.00000   0.16171
  11  N     dxy     -0.00000  -0.00000  -0.00000  -0.00000
  12  N     dyy     -0.00000   0.05960  -0.00000  -0.05206
  13  N     dxz     -0.14332  -0.00000   0.19641  -0.00000
  14  N     dyz      0.00000   0.00000   0.00000   0.00000
  15  N     dzz     -0.00000  -0.06502  -0.00000   0.00057
  16  O 1   s        0.02884  -0.00357  -0.02150  -0.00295
  17  O 1   s        0.00328   0.20503  -0.44078  -0.00768
  18  O 1   px      -0.23700  -0.50801   0.41535  -0.21586
  19  O 1   py      -0.00000   0.00000   0.00000   0.00000
  20  O 1   pz      -0.02059  -0.02917   0.35848   0.57279
  21  O 1   s        0.56639   0.00037   1.12977   0.34012
  22  O 1   px       0.05094   0.98838  -0.46593   0.37134
  23  O 1   py      -0.00000   0.00000  -0.00000  -0.00000
  24  O 1   pz       0.04793   0.32140  -0.23171  -0.90689
  25  O 1   dxx      0.15567   0.17319  -0.17881   0.00468
  26  O 1   dxy     -0.00000  -0.00000   0.00000   0.00000
  27  O 1   dyy     -0.02969   0.09172  -0.16174  -0.06006
  28  O 1   dxz      0.12272   0.03038  -0.02478   0.00548
  29  O 1   dyz     -0.00000   0.00000   0.00000   0.00000
  30  O 1   dzz      0.02615   0.09724  -0.20595   0.01774
  31  O 2   s       -0.02884  -0.00357   0.02150  -0.00295
  32  O 2   s       -0.00328   0.20503   0.44078  -0.00768
  33  O 2   px      -0.23700   0.50801   0.41535   0.21586
  34  O 2   py      -0.00000   0.00000  -0.00000  -0.00000
  35  O 2   pz       0.02059  -0.02917  -0.35848   0.57279
  36  O 2   s       -0.56639   0.00037  -1.12977   0.34012
  37  O 2   px       0.05094  -0.98838  -0.46593  -0.37134
  38  O 2   py      -0.00000   0.00000   0.00000   0.00000
  39  O 2   pz      -0.04793   0.32140   0.23171  -0.90689
  40  O 2   dxx     -0.15567   0.17319   0.17881   0.00468
  41  O 2   dxy      0.00000  -0.00000  -0.00000   0.00000
  42  O 2   dyy      0.02969   0.09172   0.16174  -0.06006
  43  O 2   dxz      0.12272  -0.03038  -0.02478  -0.00548
  44  O 2   dyz     -0.00000   0.00000   0.00000  -0.00000
  45  O 2   dzz     -0.02615   0.09724   0.20595   0.01774
 

======= MOLECULAR ORBITALS IN MOLDEN FORMAT =======
[Molden Format]
[Atoms] (Angs)
  N      1    7     -0.00000000      0.00000000      0.32402672
  O      2    8     -1.10482675     -0.00000000     -0.14176169
  O      3    8      1.10482675      0.00000000     -0.14176169
[GTO]
1    0
S    6    1.000000
   4.17351100E+03    1.83480000E-03 
   6.27457900E+02    1.39950000E-02 
   1.42902100E+02    6.85870000E-02 
   4.02343300E+01    2.32241000E-01 
   1.28202100E+01    4.69070000E-01 
   4.39043700E+00    3.60455000E-01 
SP   3    1.000000
   1.16263580E+01   -1.14961000E-01   6.75800000E-02 
   2.71628000E+00   -1.69118000E-01   3.23907000E-01 
   7.72218000E-01    1.14585200E+00   7.40895000E-01 
SP   1    1.000000
   2.12031300E-01    1.00000000E+00   1.00000000E+00 
D    1    1.000000
   8.00000000E-01    1.00000000E+00 

2    0
S    6    1.000000
   5.48467170E+03    1.83110000E-03 
   8.25234950E+02    1.39501000E-02 
   1.88046960E+02    6.84451000E-02 
   5.29645000E+01    2.32714300E-01 
   1.68975700E+01    4.70193000E-01 
   5.79963530E+00    3.58520900E-01 
SP   3    1.000000
   1.55396160E+01   -1.10777500E-01   7.08743000E-02 
   3.59993360E+00   -1.48026300E-01   3.39752800E-01 
   1.01376180E+00    1.13076700E+00   7.27158600E-01 
SP   1    1.000000
   2.70005800E-01    1.00000000E+00   1.00000000E+00 
D    1    1.000000
   8.00000000E-01    1.00000000E+00 

3    0
S    6    1.000000
   5.48467170E+03    1.83110000E-03 
   8.25234950E+02    1.39501000E-02 
   1.88046960E+02    6.84451000E-02 
   5.29645000E+01    2.32714300E-01 
   1.68975700E+01    4.70193000E-01 
   5.79963530E+00    3.58520900E-01 
SP   3    1.000000
   1.55396160E+01   -1.10777500E-01   7.08743000E-02 
   3.59993360E+00   -1.48026300E-01   3.39752800E-01 
   1.01376180E+00    1.13076700E+00   7.27158600E-01 
SP   1    1.000000
   2.70005800E-01    1.00000000E+00   1.00000000E+00 
D    1    1.000000
   8.00000000E-01    1.00000000E+00 

[MO]
Sym=X
Ene= -20.696683
Spin=Alpha
Occup=1
     1    1.757346260267e-14
     2    1.792323204475e-13
     3   -8.598311952335e-05
     4   -5.324012985667e-17
     5    2.997168365740e-14
     6   -1.979132733470e-13
     7    2.887187647964e-04
     8    2.704834906208e-17
     9    6.095597198902e-14
    10   -4.206925671144e-13
    11    3.046538714821e-14
    12   -2.174210902155e-14
    13   -7.960710453896e-17
    14   -5.275344706042e-04
    15    1.229148592162e-17
    16    7.034273871368e-01
    17    1.482770654130e-02
    18    1.232425350682e-03
    19   -1.571345695042e-17
    20    4.729955495683e-04
    21    2.539403871842e-03
    22   -2.582410615881e-04
    23   -3.110174238741e-18
    24   -1.726992666882e-04
    25   -2.476798813860e-03
    26   -2.705112019786e-03
    27   -2.732861176816e-03
    28    2.273074552402e-17
    29   -6.583298048715e-05
    30   -2.124388856983e-17
    31   -7.034273867028e-01
    32   -1.482770653216e-02
    33    1.232425349884e-03
    34   -1.225180361597e-17
    35   -4.729955492163e-04
    36   -2.539403870083e-03
    37   -2.582410615974e-04
    38    2.367824750916e-17
    39    1.726992667398e-04
    40    2.476798812345e-03
    41    2.705112018048e-03
    42    2.732861175249e-03
    43   -1.667000455997e-17
    44   -6.583298065139e-05
    45    1.211954778179e-17
Sym=X
Ene= -20.696642
Spin=Alpha
Occup=1
     1    6.961619667264e-05
     2    5.801985804998e-04
     3    2.676208842866e-14
     4    4.546149381763e-17
     5    9.708647056788e-05
     6   -6.197060151545e-04
     7   -8.501519156448e-14
     8    2.649050949367e-17
     9    1.901293281762e-04
    10   -1.364454158914e-03
    11    9.685644331792e-05
    12   -7.058689886244e-05
    13   -2.748486505399e-18
    14    1.626318849670e-13
    15   -1.432589804774e-18
    16    7.034325945906e-01
    17    1.481661258697e-02
    18    1.293081984772e-03
    19    1.862530642254e-17
    20    5.705223479575e-04
    21    2.837618552603e-03
    22    8.357754377148e-06
    23   -2.259906894587e-17
    24    8.266834890694e-05
    25   -2.455301772796e-03
    26   -2.814872524683e-03
    27   -2.537658721069e-03
    28    3.748768743557e-17
    29    2.657398308636e-04
    30    1.499431015789e-17
    31    7.034325950245e-01
    32    1.481661259612e-02
    33   -1.293081985532e-03
    34    4.090361690612e-17
    35    5.705223482494e-04
    36    2.837618554159e-03
    37   -8.357754214662e-06
    38   -4.920357247458e-17
    39    8.266834879803e-05
    40   -2.455301774323e-03
    41   -2.814872526350e-03
    42   -2.537658722753e-03
    43   -1.555331974444e-17
    44   -2.657398308229e-04
    45    7.440607956591e-17
Sym=X
Ene= -15.895667
Spin=Alpha
Occup=1
     1    9.952762654310e-01
     2    2.356265082086e-02
     3    5.502977296300e-16
     4   -3.317071219490e-17
     5   -1.548504600047e-03
     6    8.396167842171e-05
     7    3.163586329490e-15
     8   -4.296313997802e-17
     9    3.278226751923e-04
    10   -2.151054639147e-03
    11   -3.650137835226e-03
    12   -3.262716596383e-03
    13    2.118450645674e-17
    14   -2.086992798493e-16
    15   -2.803110584911e-17
    16   -2.431020368270e-04
    17    1.631872473691e-04
    18    1.839921022700e-05
    19    8.538584751216e-17
    20    4.389993198429e-05
    21   -8.135036274533e-05
    22   -3.865612728717e-04
    23   -7.683147380519e-17
    24   -2.788520245868e-04
    25   -4.336660826318e-04
    26    1.106567142704e-04
    27   -1.147619207227e-04
    28    7.111012428582e-18
    29   -3.052193299613e-04
    30    4.103378440065e-17
    31   -2.431020368341e-04
    32    1.631872473698e-04
    33   -1.839921022718e-05
    34    3.579124493587e-17
    35    4.389993198429e-05
    36   -8.135036275240e-05
    37    3.865612728743e-04
    38    2.928952944320e-17
    39   -2.788520245886e-04
    40   -4.336660826316e-04
    41    1.106567142712e-04
    42   -1.147619207219e-04
    43    1.959016255661e-17
    44    3.052193299616e-04
    45    4.991589723059e-18
Sym=X
Ene= -1.674117
Spin=Alpha
Occup=1
     1   -1.517009731452e-01
     2    3.465232376948e-01
     3   -2.795778275324e-16
     4   -6.872238524621e-17
     5   -1.030770988929e-01
     6    1.190174054004e-01
     7    8.614591269957e-15
     8   -9.284556219290e-17
     9   -2.598822577535e-03
    10    3.518975550471e-02
    11   -1.355882780274e-02
    12   -4.814307606314e-03
    13   -2.344407401841e-17
    14   -1.316116862491e-16
    15   -3.660021666882e-17
    16   -1.147646119462e-01
    17    2.626567226223e-01
    18    1.127763362798e-01
    19    1.039054977580e-16
    20    3.328878837343e-02
    21    1.897545426928e-01
    22    4.515155601513e-02
    23   -1.978367681677e-16
    24    1.227278176462e-02
    25    2.328314897638e-02
    26   -7.254263347245e-04
    27   -1.652340810985e-03
    28    1.496666849243e-17
    29    7.955351965682e-03
    30    1.023872811569e-16
    31   -1.147646119462e-01
    32    2.626567226223e-01
    33   -1.127763362798e-01
    34    2.230552754605e-16
    35    3.328878837343e-02
    36    1.897545426928e-01
    37   -4.515155601512e-02
    38   -2.526426388651e-17
    39    1.227278176462e-02
    40    2.328314897638e-02
    41   -7.254263347229e-04
    42   -1.652340810982e-03
    43   -4.754168496786e-17
    44   -7.955351965681e-03
    45    1.620180852773e-16
Sym=X
Ene= -1.495108
Spin=Alpha
Occup=1
     1   -7.677118108766e-16
     2   -7.497337908175e-16
     3    3.106322969281e-01
     4   -1.659471147145e-16
     5   -4.715505751061e-16
     6   -3.350219309766e-15
     7   -1.321446823260e-04
     8   -3.307241278894e-16
     9   -4.660624792442e-16
    10   -8.257089482341e-17
    11    9.889452399050e-17
    12    4.567456129206e-16
    13    1.169993003809e-16
    14   -3.372343491476e-02
    15    3.329113652509e-18
    16    1.446008940244e-01
    17   -3.271011045566e-01
    18   -8.784630433686e-02
    19   -1.703539711121e-16
    20   -4.532269468462e-02
    21   -3.042916261486e-01
    22   -4.860876054236e-02
    23   -1.355450690318e-16
    24   -2.692781819016e-02
    25   -1.181511970262e-02
    26    3.500348654029e-03
    27   -2.759384191360e-03
    28    1.312664667793e-17
    29   -1.163680767390e-02
    30    2.428968916056e-17
    31   -1.446008940244e-01
    32    3.271011045566e-01
    33   -8.784630433686e-02
    34   -2.675042226213e-16
    35    4.532269468462e-02
    36    3.042916261486e-01
    37   -4.860876054236e-02
    38   -2.896946433360e-16
    39    2.692781819016e-02
    40    1.181511970262e-02
    41   -3.500348654029e-03
    42    2.759384191360e-03
    43    1.059149299207e-16
    44   -1.163680767390e-02
    45   -4.452860840442e-17
Sym=X
Ene= -0.945712
Spin=Alpha
Occup=1
     1    1.273316556668e-01
     2   -3.318632353524e-01
     3    2.605062119580e-16
     4    2.727199981901e-15
     5   -2.225239107411e-03
     6   -3.033384609192e-01
     7    4.590578724323e-15
     8    2.443031521706e-15
     9    6.177599785071e-03
    10   -5.317415481239e-03
    11    1.173859748928e-03
    12    2.899664049620e-04
    13    5.804493291559e-17
    14    1.552555969036e-16
    15   -4.351981862623e-18
    16   -1.123266011148e-01
    17    2.597859471204e-01
    18   -2.326068369628e-01
    19   -1.711257541738e-16
    20   -1.083614567650e-01
    21    3.872133847889e-01
    22   -9.674165161303e-02
    23   -5.947729657209e-16
    24   -5.345544798211e-02
    25   -1.866269374909e-02
    26    5.025779388893e-03
    27    1.309670090425e-03
    28    1.469332277921e-16
    29   -1.377912452311e-02
    30    5.696067646362e-17
    31   -1.123266011148e-01
    32    2.597859471204e-01
    33    2.326068369628e-01
    34   -4.537289906253e-17
    35   -1.083614567650e-01
    36    3.872133847889e-01
    37    9.674165161303e-02
    38   -7.063989811745e-16
    39   -5.345544798211e-02
    40   -1.866269374909e-02
    41    5.025779388893e-03
    42    1.309670090426e-03
    43   -1.533793402579e-16
    44    1.377912452311e-02
    45    1.140129171446e-16
Sym=X
Ene= -0.793888
Spin=Alpha
Occup=1
     1    6.123947641626e-15
     2   -1.691446147886e-14
     3    3.868333304086e-01
     4   -4.860148981586e-15
     5   -1.010836792403e-13
     6   -3.827195683427e-14
     7    8.849757992483e-02
     8   -2.556221145547e-15
     9   -3.977888090994e-14
    10   -7.945153111255e-15
    11   -8.836063722879e-16
    12    8.356863813175e-15
    13   -6.487082323217e-18
    14   -1.625517842863e-02
    15    3.100072489394e-16
    16   -7.239247794867e-02
    17    1.682385640636e-01
    18   -3.098887493108e-01
    19   -3.897707082852e-15
    20   -1.796972830223e-01
    21    2.791195290600e-01
    22   -1.655156884001e-01
    23   -2.237873316530e-15
    24   -9.735360097151e-02
    25   -2.005689424974e-02
    26    8.730759126124e-03
    27   -1.195132490506e-03
    28   -3.239348500588e-16
    29   -2.137338505339e-02
    30   -1.679160687397e-16
    31    7.239247794867e-02
    32   -1.682385640636e-01
    33   -3.098887493109e-01
    34   -3.842065017053e-15
    35    1.796972830222e-01
    36   -2.791195290601e-01
    37   -1.655156884002e-01
    38   -2.159401539641e-15
    39    9.735360097143e-02
    40    2.005689424975e-02
    41   -8.730759126126e-03
    42    1.195132490496e-03
    43    3.766039966183e-16
    44   -2.137338505338e-02
    45   -1.960401472815e-16
Sym=X
Ene= -0.828104
Spin=Alpha
Occup=1
     1   -3.389884872549e-02
     2    7.775944200397e-02
     3    1.011503185111e-13
     4    1.483482958137e-14
     5    3.863855160837e-01
     6    1.318054161182e-01
     7    3.063799616535e-14
     8    5.756871479659e-15
     9    1.622988932906e-01
    10    2.925195897940e-02
    11    3.839940481861e-03
    12   -3.238385651865e-02
    13    6.452188828026e-17
    14   -4.521276893521e-15
    15   -1.106339147403e-15
    16   -1.107296087168e-02
    17    2.163538502515e-02
    18   -1.983540456257e-01
    19    1.552425022837e-14
    20    2.888017302561e-01
    21    4.709333238471e-02
    22   -1.147165857169e-01
    23    1.024901849167e-14
    24    1.738503009991e-01
    25   -2.446601434477e-02
    26    2.013344568982e-03
    27    1.644941101279e-02
    28    1.345658193687e-15
    29    1.428061003193e-02
    30    5.214363547840e-16
    31   -1.107296087165e-02
    32    2.163538502506e-02
    33    1.983540456255e-01
    34    1.612535183876e-14
    35    2.888017302562e-01
    36    4.709333238455e-02
    37    1.147165857168e-01
    38    1.067284796623e-14
    39    1.738503009992e-01
    40   -2.446601434476e-02
    41    2.013344568979e-03
    42    1.644941101279e-02
    43   -1.335864816662e-15
    44   -1.428061003194e-02
    45    5.459433932257e-16
Sym=X
Ene= -0.761055
Spin=Alpha
Occup=1
     1    1.430461378447e-15
     2   -2.406455057652e-15
     3    5.312292551908e-15
     4    4.129960366239e-01
     5   -1.721672717328e-14
     6   -7.220299351626e-15
     7    3.277715975808e-15
     8    2.079601884708e-01
     9   -6.538330938183e-15
    10   -1.378193939187e-15
    11   -9.037893186419e-17
    12    1.340758603781e-15
    13    1.465474512607e-16
    14   -4.614166140289e-16
    15   -2.453770417930e-02
    16   -5.809492608433e-16
    17   -6.811170406348e-16
    18    5.357450188472e-15
    19    3.289261989409e-01
    20   -1.341007633938e-14
    21    3.084518529062e-15
    22    4.666293458944e-15
    23    1.957134887891e-01
    24   -7.128336063330e-15
    25    9.068034204247e-16
    26   -3.165615020213e-16
    27   -9.433443155391e-16
    28    3.231863600902e-02
    29   -6.391062504848e-16
    30    1.369856802617e-02
    31    2.131348570310e-16
    32   -3.111269252763e-15
    33   -1.350821794075e-14
    34    3.289261989409e-01
    35   -9.692099465772e-15
    36   -6.970928720491e-15
    37   -7.435850164667e-15
    38    1.957134887891e-01
    39   -6.423361456968e-15
    40    1.514041814097e-15
    41   -1.465878082496e-16
    42   -6.748573903214e-16
    43   -3.231863600902e-02
    44    3.265298466852e-16
    45    1.369856802617e-02
Sym=X
Ene= -0.589916
Spin=Alpha
Occup=1
     1    3.654816566439e-16
     2   -6.947089926022e-16
     3    1.391643135592e-02
     4   -9.844051269978e-16
     5    1.637749406168e-15
     6    3.471023899341e-15
     7   -7.517475358014e-02
     8   -5.101589881664e-16
     9    8.663559707470e-16
    10   -2.461306287116e-16
    11   -4.237388885901e-16
    12   -6.004627367759e-16
    13    3.864816284445e-16
    14   -4.929752606972e-02
    15    7.156291340022e-17
    16    4.110487551697e-03
    17   -4.117273525633e-03
    18   -2.561659271616e-01
    19   -3.569216146722e-15
    20    4.056174532090e-01
    21   -5.410463918261e-02
    22   -1.952820524529e-01
    23   -2.584116427085e-15
    24    2.768064135184e-01
    25   -1.696566109064e-02
    26    2.426478224451e-03
    27    1.689402005226e-02
    28   -2.158281295761e-16
    29    1.412350509428e-02
    30   -9.545248628414e-17
    31   -4.110487551699e-03
    32    4.117273525634e-03
    33   -2.561659271616e-01
    34    2.067172287855e-15
    35   -4.056174532090e-01
    36    5.410463918261e-02
    37   -1.952820524529e-01
    38    1.683579969990e-15
    39   -2.768064135184e-01
    40    1.696566109064e-02
    41   -2.426478224451e-03
    42   -1.689402005226e-02
    43   -7.782485992493e-17
    44    1.412350509428e-02
    45    3.881839288872e-17
Sym=X
Ene= -0.528410
Spin=Alpha
Occup=1
     1    7.297047051225e-16
     2    1.281459970897e-16
     3    1.463752723588e-16
     4    1.283044398839e-15
     5    1.141577356345e-16
     6   -1.800034509600e-15
     7    5.534455733430e-16
     8    1.653065977613e-15
     9    6.181492202630e-16
    10   -2.067710787244e-16
    11    9.103791857932e-17
    12   -4.319606540854e-17
    13   -6.245585041882e-02
    14   -3.907301515715e-16
    15   -6.876422463101e-17
    16   -5.625593230840e-16
    17    2.960594443698e-17
    18   -1.733206820068e-15
    19    4.596921678679e-01
    20    2.912208482624e-15
    21    2.047533523952e-15
    22   -3.815892507076e-16
    23    3.471929257854e-01
    24    2.382717638819e-15
    25   -7.294008214510e-17
    26   -1.739780666700e-16
    27   -1.165879783331e-17
    28    2.506082907752e-02
    29    2.135032723795e-16
    30    1.059983776903e-02
    31    3.077808164783e-16
    32    1.139841243321e-16
    33   -1.487907336083e-15
    34   -4.596921678679e-01
    35   -2.132578715384e-15
    36    5.398044566362e-16
    37   -1.414902233489e-15
    38   -3.471929257854e-01
    39   -1.567397024068e-15
    40    1.764967696363e-16
    41   -4.437522612761e-17
    42   -1.083783774013e-16
    43    2.506082907751e-02
    44    3.867141320575e-17
    45   -1.059983776903e-02
Sym=X
Ene= -0.503532
Spin=Alpha
Occup=1
     1   -7.254184027605e-02
     2    1.622794988839e-01
     3    6.241653724121e-16
     4   -9.010854481128e-14
     5    5.095258062207e-01
     6    5.077745951903e-01
     7    1.242220564632e-14
     8   -9.990236873415e-14
     9    2.641900198407e-01
    10   -6.423653243412e-02
    11    4.026612756814e-03
    12    2.955482551044e-02
    13   -1.005855321102e-17
    14   -3.725867486660e-16
    15   -1.411604091735e-15
    16    1.630154718044e-02
    17   -4.719848605181e-02
    18   -4.834004909559e-02
    19    5.839490988541e-14
    20   -3.628124460334e-01
    21   -7.005493350242e-02
    22   -3.567540513656e-02
    23    6.880820421046e-14
    24   -3.039633446208e-01
    25   -1.017432936524e-02
    26    1.467062708374e-03
    27    1.854011257960e-03
    28   -1.971268516616e-15
    29   -3.806623301981e-03
    30   -1.284446985091e-15
    31    1.630154718044e-02
    32   -4.719848605180e-02
    33    4.834004909559e-02
    34    5.737845453929e-14
    35   -3.628124460334e-01
    36   -7.005493350245e-02
    37    3.567540513657e-02
    38    6.805691293864e-14
    39   -3.039633446208e-01
    40   -1.017432936523e-02
    41    1.467062708376e-03
    42    1.854011257962e-03
    43    2.078879585397e-15
    44    3.806623301982e-03
    45   -1.323871304074e-15
Sym=X
Ene= 0.077437
Spin=Alpha
Occup=0
     1   -1.270925240981e-14
     2    3.106102332196e-14
     3    3.505628815452e-16
     4    5.437931091747e-01
     5    9.017188492372e-14
     6    7.967487962699e-14
     7    1.585561828334e-15
     8    5.973711110707e-01
     9    4.121666092659e-14
    10   -1.109273854701e-14
    11    7.123398698679e-16
    12    6.088726041274e-15
    13    6.684247596748e-17
    14   -1.647445239424e-16
    15    1.193923344599e-02
    16    2.889742755652e-15
    17   -8.091101127970e-15
    18   -8.243060180821e-15
    19   -3.435564131817e-01
    20   -5.953676993626e-14
    21   -1.055206471584e-14
    22   -4.868654871127e-15
    23   -4.069747214828e-01
    24   -4.680692081634e-14
    25   -1.271227187213e-15
    26    2.548014085718e-16
    27    5.118619535502e-16
    28    1.211767855960e-02
    29   -4.801215584009e-16
    30    7.588862311027e-03
    31    2.938696339667e-15
    32   -7.629709205684e-15
    33    8.339384566403e-15
    34   -3.435564131817e-01
    35   -5.955396183488e-14
    36   -1.338034718061e-14
    37    5.985462233961e-15
    38   -4.069747214828e-01
    39   -4.762808917953e-14
    40   -1.459785541617e-15
    41    6.533764281028e-16
    42    4.227871431940e-16
    43   -1.211767855960e-02
    44    7.008198946209e-16
    45    7.588862311027e-03
Sym=X
Ene= 0.437203
Spin=Alpha
Occup=0
     1   -1.209193628441e-01
     2    1.561434778452e-01
     3   -6.183043336864e-15
     4   -2.924351780389e-16
     5   -3.469136866896e-01
     6    2.543431194365e+00
     7   -1.344562608506e-13
     8    5.060398724147e-16
     9   -1.078518983767e+00
    10   -5.998886614669e-02
    11    1.365912010452e-02
    12   -1.614246401516e-02
    13    1.668309823022e-16
    14    3.990023009222e-15
    15    3.646822016854e-17
    16    7.755378804904e-02
    17   -1.985567257963e-01
    18   -3.219802838224e-01
    19   -3.380816345736e-16
    20    7.508539758320e-03
    21   -1.098251944935e+00
    22   -9.392047304242e-01
    23    2.170104433984e-16
    24   -7.504144493931e-02
    25   -2.099654006214e-02
    26    4.044007049206e-03
    27   -2.901420315519e-02
    28   -2.914893544722e-16
    29   -1.918588137980e-02
    30   -8.911864659032e-17
    31    7.755378804903e-02
    32   -1.985567257963e-01
    33    3.219802838224e-01
    34   -1.854608505408e-16
    35    7.508539758329e-03
    36   -1.098251944935e+00
    37    9.392047304241e-01
    38   -2.629638855403e-16
    39   -7.504144493925e-02
    40   -2.099654006212e-02
    41    4.044007049215e-03
    42   -2.901420315517e-02
    43   -1.230535728258e-16
    44    1.918588137980e-02
    45    1.340536745681e-16
Sym=X
Ene= 0.558596
Spin=Alpha
Occup=0
     1   -7.233908502701e-15
     2    3.801991915048e-14
     3    3.388194951296e-01
     4   -1.001277908354e-15
     5   -2.849359194640e-14
     6    6.791948623801e-14
     7    3.112642239286e+00
     8    3.835640920399e-16
     9   -2.184059340891e-14
    10   -1.217471096463e-14
    11    1.035064151301e-14
    12    1.864316829331e-15
    13    2.180082921964e-16
    14   -1.565991562059e-02
    15   -6.250444493167e-17
    16   -7.836714451300e-02
    17    1.682318267102e-01
    18    6.091564189624e-02
    19   -4.723497597733e-16
    20    1.775102434696e-01
    21    2.015022409910e+00
    22    9.820357232763e-01
    23    9.284676799986e-16
    24    7.367257794103e-01
    25    5.836471978442e-02
    26    4.665104023387e-03
    27   -7.604987379620e-03
    28   -4.403070593080e-17
    29    1.994593757138e-02
    30   -3.846543621960e-17
    31    7.836714451301e-02
    32   -1.682318267102e-01
    33    6.091564189629e-02
    34    6.874026201201e-16
    35   -1.775102434696e-01
    36   -2.015022409911e+00
    37    9.820357232764e-01
    38   -5.059737424433e-16
    39   -7.367257794103e-01
    40   -5.836471978439e-02
    41   -4.665104023371e-03
    42    7.604987379634e-03
    43    9.545125908843e-17
    44    1.994593757138e-02
    45    4.217254873779e-16
Sym=X
Ene= 0.753056
Spin=Alpha
Occup=0
     1    3.213113156776e-03
     2   -1.020604048920e+00
     3    2.132213472314e-14
     4    6.021300225432e-15
     5   -4.135265904161e-01
     6    1.191899438001e+00
     7   -6.721427915867e-15
     8   -4.125409767523e-15
     9    6.748563176359e-01
    10   -2.263292244008e-01
    11   -2.004081279769e-01
    12   -1.960845362468e-01
    13    2.270440141777e-16
    14    2.884018669233e-15
    15    2.525847165110e-16
    16   -1.567210459916e-02
    17   -2.517878984858e-01
    18    7.966148020613e-02
    19   -6.110960431286e-16
    20    1.994782785536e-02
    21    4.297287915764e-01
    22    1.719289106726e-01
    23    1.158092690360e-16
    24   -6.853824117765e-02
    25   -9.271593808306e-02
    26   -7.404145031213e-02
    27   -1.076998691206e-01
    28   -3.764689697618e-16
    29   -6.045464391578e-02
    30   -2.898855746620e-16
    31   -1.567210459916e-02
    32   -2.517878984858e-01
    33   -7.966148020612e-02
    34    7.145277137559e-17
    35    1.994782785536e-02
    36    4.297287915765e-01
    37   -1.719289106726e-01
    38   -1.037724269954e-15
    39   -6.853824117766e-02
    40   -9.271593808307e-02
    41   -7.404145031214e-02
    42   -1.076998691206e-01
    43   -6.591278354311e-16
    44    6.045464391578e-02
    45    5.033490297742e-16
Sym=X
Ene= 0.802978
Spin=Alpha
Occup=0
     1    1.588370273638e-02
     2   -5.030169712130e-01
     3    1.962843318168e-13
     4    3.403837421108e-15
     5    6.919325971350e-01
     6    1.695268624069e+00
     7   -2.763291708677e-13
     8   -7.212455920534e-15
     9   -1.398742009647e+00
    10    1.584154295426e-01
    11   -9.197200084472e-02
    12   -1.290614397592e-01
    13   -7.073254382281e-17
    14    3.184156888897e-14
    15   -3.735110301730e-16
    16   -6.702777518048e-03
    17   -1.614270199532e-01
    18    1.371564904591e-01
    19    5.958213320811e-17
    20    2.164354356201e-01
    21   -4.400604749452e-01
    22   -4.549715675550e-01
    23    2.632479577710e-15
    24   -4.679169575533e-02
    25   -2.465165995530e-01
    26   -7.786214353908e-03
    27   -2.630531649779e-02
    28    3.051668768494e-16
    29   -5.118848610535e-02
    30    1.323163255578e-16
    31   -6.702777518034e-03
    32   -1.614270199533e-01
    33   -1.371564904590e-01
    34    2.027877353907e-15
    35    2.164354356201e-01
    36   -4.400604749449e-01
    37    4.549715675550e-01
    38    5.908975328303e-16
    39   -4.679169575532e-02
    40   -2.465165995529e-01
    41   -7.786214353937e-03
    42   -2.630531649779e-02
    43   -6.540846859481e-16
    44    5.118848610530e-02
    45   -1.742696589734e-16
Sym=X
Ene= 0.833951
Spin=Alpha
Occup=0
     1    2.274664496634e-16
     2   -7.797887133458e-15
     3    8.645854714957e-14
     4   -8.906926409654e-01
     5    1.454774860093e-15
     6    1.431197178602e-14
     7   -1.553920828375e-13
     8    1.224872483228e+00
     9   -3.309033226827e-15
    10    4.707165189153e-18
    11   -2.231890153071e-15
    12   -1.073346565361e-15
    13    3.865470422453e-16
    14    1.403670750842e-14
    15    4.926196074437e-02
    16   -2.991833453263e-15
    17   -2.504761021848e-15
    18    2.479389155632e-14
    19   -1.831747123590e-01
    20    4.243111294530e-15
    21   -5.721854161641e-14
    22   -7.681569156384e-15
    23   -1.001016074519e-01
    24   -7.760028480296e-15
    25   -1.764498061510e-14
    26    2.433872357481e-15
    27   -3.410767763319e-15
    28   -7.857892433157e-02
    29   -1.258040388616e-14
    30   -2.572205213959e-02
    31    2.656091682012e-15
    32   -1.190514553826e-15
    33    2.156918567695e-14
    34   -1.831747123590e-01
    35   -2.046296514373e-15
    36    5.686739624288e-14
    37   -4.023577627457e-15
    38   -1.001016074519e-01
    39    6.421861226534e-15
    40    1.416332380379e-14
    41   -3.560202639131e-15
    42    2.324986676074e-15
    43    7.857892433157e-02
    44   -1.121380517284e-14
    45   -2.572205213959e-02
Sym=X
Ene= 0.833927
Spin=Alpha
Occup=0
     1    1.838977084469e-15
     2   -1.129700639576e-13
     3   -8.849646530920e-01
     4   -8.805781743991e-14
     5    1.352071891205e-13
     6    3.354365408595e-13
     7    1.544016296206e+00
     8    1.210067945790e-13
     9   -2.684424115842e-13
    10    2.293217854270e-14
    11   -1.907893434684e-14
    12   -3.052339886169e-14
    13   -4.495053944253e-16
    14   -1.433185622753e-01
    15    5.539407658160e-15
    16    2.884190019704e-02
    17    3.280149427547e-03
    18   -2.369987413312e-01
    19   -1.685804369973e-14
    20   -2.059394711754e-02
    21    5.663906910739e-01
    22    5.093535753268e-02
    23   -1.139794449041e-14
    24    4.793047512195e-02
    25    1.556683122854e-01
    26   -2.968636280788e-02
    27    2.614850945730e-02
    28   -7.337417363903e-15
    29    1.227213121009e-01
    30   -3.190932644497e-15
    31   -2.884190019704e-02
    32   -3.280149427646e-03
    33   -2.369987413312e-01
    34   -1.822031875286e-14
    35    2.059394711764e-02
    36   -5.663906910740e-01
    37    5.093535753284e-02
    38   -9.498073937381e-15
    39   -4.793047512197e-02
    40   -1.556683122855e-01
    41    2.968636280787e-02
    42   -2.614850945732e-02
    43    7.035065438595e-15
    44    1.227213121009e-01
    45   -1.843998684319e-15
Sym=X
Ene= 1.019185
Spin=Alpha
Occup=0
     1   -5.616701766178e-02
     2   -2.921054715782e-01
     3    1.306234606045e-15
     4   -1.473156871584e-15
     5    2.148265166939e-01
     6   -7.379453510334e-01
     7   -1.148546698118e-14
     8    4.201270762349e-16
     9    1.254462235795e-02
    10   -4.106427128869e-01
    11    5.959986081094e-02
    12   -6.501531480791e-02
    13   -1.254702014351e-15
    14   -1.143039409928e-14
    15    7.259430027990e-16
    16   -3.567215343010e-03
    17    2.050277139079e-01
    18   -5.080074564413e-01
    19    3.276909055388e-16
    20   -2.917413540899e-02
    21    3.656645762750e-04
    22    9.883842126639e-01
    23    4.149071204771e-18
    24    3.214006295094e-01
    25    1.731865707266e-01
    26    9.171915989316e-02
    27    9.724450133438e-02
    28   -9.437600372920e-16
    29    3.037644415902e-02
    30    5.472260057076e-17
    31   -3.567215343011e-03
    32    2.050277139079e-01
    33    5.080074564413e-01
    34    7.339214930224e-16
    35   -2.917413540895e-02
    36    3.656645762934e-04
    37   -9.883842126638e-01
    38    3.417464493567e-16
    39    3.214006295094e-01
    40    1.731865707266e-01
    41    9.171915989315e-02
    42    9.724450133437e-02
    43   -6.780793126571e-16
    44   -3.037644415902e-02
    45    1.032146756695e-15
Sym=X
Ene= 1.069606
Spin=Alpha
Occup=0
     1   -3.424665798259e-15
     2   -5.719699979833e-14
     3   -8.215110227257e-02
     4    5.443896372340e-17
     5    4.929368358751e-15
     6    3.447295593186e-13
     7    6.105185483387e-01
     8    1.227873661482e-16
     9   -9.890883937082e-14
    10   -9.062786126779e-15
    11   -1.338009442827e-14
    12   -1.736461394589e-14
    13   -1.728672683918e-15
    14    1.964131110363e-01
    15    5.225009938292e-16
    16   -2.149821165124e-02
    17   -4.407823924724e-01
    18    4.153508148653e-01
    19    1.631879223490e-14
    20    3.584792683481e-01
    21    1.129768068699e+00
    22   -4.659293898168e-01
    23   -1.915040091631e-14
    24   -2.317076793575e-01
    25   -1.788079688071e-01
    26   -1.617394784704e-01
    27   -2.059528850280e-01
    28    6.111191562181e-16
    29   -2.477525921651e-02
    30    2.113423530505e-16
    31    2.149821165125e-02
    32    4.407823924726e-01
    33    4.153508148653e-01
    34   -1.243981523773e-14
    35   -3.584792683481e-01
    36   -1.129768068699e+00
    37   -4.659293898167e-01
    38    1.529355734782e-14
    39    2.317076793575e-01
    40    1.788079688071e-01
    41    1.617394784704e-01
    42    2.059528850281e-01
    43   -3.849680800254e-16
    44   -2.477525921651e-02
    45    3.531621540391e-16
Sym=X
Ene= 1.143856
Spin=Alpha
Occup=0
     1    1.500706955054e-02
     2    1.992990856887e-01
     3    3.513569830784e-15
     4    2.193944002766e-15
     5   -2.024743483944e-01
     6   -5.926464144828e-01
     7   -2.888262651398e-14
     8   -2.941180995658e-15
     9    9.913350821990e-01
    10    1.617127587061e-01
    11   -5.205716609539e-02
    12    5.666860061284e-04
    13   -3.183868102350e-14
    14   -7.643047599297e-16
    15    5.710826558173e-18
    16   -2.953387400619e-03
    17   -7.675023226933e-03
    18   -2.158627675497e-01
    19    1.493040841865e-13
    20    5.727901819343e-01
    21    3.401199001107e-01
    22    3.713371845022e-01
    23   -1.853661369896e-13
    24   -9.068864579046e-01
    25    4.677089570726e-03
    26   -6.005937973414e-02
    27    1.773565622085e-02
    28    9.855405035482e-15
    29    5.484009987640e-03
    30    2.752864269578e-16
    31   -2.953387400619e-03
    32   -7.675023226928e-03
    33    2.158627675497e-01
    34   -1.561914956402e-13
    35    5.727901819343e-01
    36    3.401199001108e-01
    37   -3.713371845022e-01
    38    1.925919940597e-13
    39   -9.068864579046e-01
    40    4.677089570733e-03
    41   -6.005937973413e-02
    42    1.773565622085e-02
    43    1.001079204250e-14
    44   -5.484009987641e-03
    45   -1.433196498895e-15

======= END OF MOLDEN-FORMAT MOLECULAR ORBITALS =======

 -----------------------------------------------------------------
                    Cartesian Multipole Moments
 -----------------------------------------------------------------
    Charge (ESU x 10^10)
                -0.0000
    Dipole Moment (Debye)
         X      -0.0000      Y       0.0000      Z       0.7842
       Tot       0.7842
    Quadrupole Moments (Debye-Ang)
        XX     -18.5737     XY      -0.0000     YY     -14.7748
        XZ      -0.0000     YZ       0.0000     ZZ     -15.2490
    Octopole Moments (Debye-Ang^2)
       XXX      -0.0000    XXY      -0.0000    XYY      -0.0000
       YYY       0.0000    XXZ      -0.3597    XYZ      -0.0000
       YYZ       0.0423    XZZ      -0.0000    YZZ       0.0000
       ZZZ      -0.2193
    Hexadecapole Moments (Debye-Ang^3)
      XXXX     -90.7472   XXXY      -0.0000   XXYY     -16.5956
      XYYY      -0.0000   YYYY     -10.3666   XXXZ       0.0000
      XXYZ       0.0000   XYYZ      -0.0000   YYYZ       0.0000
      XXZZ     -17.2871   XYZZ      -0.0000   YYZZ      -4.2188
      XZZZ      -0.0000   YZZZ       0.0000   ZZZZ     -15.4089
 -----------------------------------------------------------------
 Total job time:  6.85s(wall), 1.21s(cpu) 
 Thu Dec 22 13:03:50 2022

======= MOLDEN-FORMATTED INPUT FILE FOLLOWS =======
[Molden Format]
[Atoms] (Angs)
  N      1    7     -0.00000000      0.00000000      0.32402672
  O      2    8     -1.10482675     -0.00000000     -0.14176169
  O      3    8      1.10482675      0.00000000     -0.14176169
[GTO]
1    0
S    6    1.000000
   4.17351100E+03    1.83480000E-03 
   6.27457900E+02    1.39950000E-02 
   1.42902100E+02    6.85870000E-02 
   4.02343300E+01    2.32241000E-01 
   1.28202100E+01    4.69070000E-01 
   4.39043700E+00    3.60455000E-01 
SP   3    1.000000
   1.16263580E+01   -1.14961000E-01   6.75800000E-02 
   2.71628000E+00   -1.69118000E-01   3.23907000E-01 
   7.72218000E-01    1.14585200E+00   7.40895000E-01 
SP   1    1.000000
   2.12031300E-01    1.00000000E+00   1.00000000E+00 
D    1    1.000000
   8.00000000E-01    1.00000000E+00 

2    0
S    6    1.000000
   5.48467170E+03    1.83110000E-03 
   8.25234950E+02    1.39501000E-02 
   1.88046960E+02    6.84451000E-02 
   5.29645000E+01    2.32714300E-01 
   1.68975700E+01    4.70193000E-01 
   5.79963530E+00    3.58520900E-01 
SP   3    1.000000
   1.55396160E+01   -1.10777500E-01   7.08743000E-02 
   3.59993360E+00   -1.48026300E-01   3.39752800E-01 
   1.01376180E+00    1.13076700E+00   7.27158600E-01 
SP   1    1.000000
   2.70005800E-01    1.00000000E+00   1.00000000E+00 
D    1    1.000000
   8.00000000E-01    1.00000000E+00 

3    0
S    6    1.000000
   5.48467170E+03    1.83110000E-03 
   8.25234950E+02    1.39501000E-02 
   1.88046960E+02    6.84451000E-02 
   5.29645000E+01    2.32714300E-01 
   1.68975700E+01    4.70193000E-01 
   5.79963530E+00    3.58520900E-01 
SP   3    1.000000
   1.55396160E+01   -1.10777500E-01   7.08743000E-02 
   3.59993360E+00   -1.48026300E-01   3.39752800E-01 
   1.01376180E+00    1.13076700E+00   7.27158600E-01 
SP   1    1.000000
   2.70005800E-01    1.00000000E+00   1.00000000E+00 
D    1    1.000000
   8.00000000E-01    1.00000000E+00 

[MO]
Sym=X
Ene= -20.696683
Spin=Alpha
Occup=1
     1    1.757346260267e-14
     2    1.792323204475e-13
     3   -8.598311952335e-05
     4   -5.324012985667e-17
     5    2.997168365740e-14
     6   -1.979132733470e-13
     7    2.887187647964e-04
     8    2.704834906208e-17
     9    6.095597198902e-14
    10   -4.206925671144e-13
    11    3.046538714821e-14
    12   -2.174210902155e-14
    13   -7.960710453896e-17
    14   -5.275344706042e-04
    15    1.229148592162e-17
    16    7.034273871368e-01
    17    1.482770654130e-02
    18    1.232425350682e-03
    19   -1.571345695042e-17
    20    4.729955495683e-04
    21    2.539403871842e-03
    22   -2.582410615881e-04
    23   -3.110174238741e-18
    24   -1.726992666882e-04
    25   -2.476798813860e-03
    26   -2.705112019786e-03
    27   -2.732861176816e-03
    28    2.273074552402e-17
    29   -6.583298048715e-05
    30   -2.124388856983e-17
    31   -7.034273867028e-01
    32   -1.482770653216e-02
    33    1.232425349884e-03
    34   -1.225180361597e-17
    35   -4.729955492163e-04
    36   -2.539403870083e-03
    37   -2.582410615974e-04
    38    2.367824750916e-17
    39    1.726992667398e-04
    40    2.476798812345e-03
    41    2.705112018048e-03
    42    2.732861175249e-03
    43   -1.667000455997e-17
    44   -6.583298065139e-05
    45    1.211954778179e-17
Sym=X
Ene= -20.696642
Spin=Alpha
Occup=1
     1    6.961619667264e-05
     2    5.801985804998e-04
     3    2.676208842866e-14
     4    4.546149381763e-17
     5    9.708647056788e-05
     6   -6.197060151545e-04
     7   -8.501519156448e-14
     8    2.649050949367e-17
     9    1.901293281762e-04
    10   -1.364454158914e-03
    11    9.685644331792e-05
    12   -7.058689886244e-05
    13   -2.748486505399e-18
    14    1.626318849670e-13
    15   -1.432589804774e-18
    16    7.034325945906e-01
    17    1.481661258697e-02
    18    1.293081984772e-03
    19    1.862530642254e-17
    20    5.705223479575e-04
    21    2.837618552603e-03
    22    8.357754377148e-06
    23   -2.259906894587e-17
    24    8.266834890694e-05
    25   -2.455301772796e-03
    26   -2.814872524683e-03
    27   -2.537658721069e-03
    28    3.748768743557e-17
    29    2.657398308636e-04
    30    1.499431015789e-17
    31    7.034325950245e-01
    32    1.481661259612e-02
    33   -1.293081985532e-03
    34    4.090361690612e-17
    35    5.705223482494e-04
    36    2.837618554159e-03
    37   -8.357754214662e-06
    38   -4.920357247458e-17
    39    8.266834879803e-05
    40   -2.455301774323e-03
    41   -2.814872526350e-03
    42   -2.537658722753e-03
    43   -1.555331974444e-17
    44   -2.657398308229e-04
    45    7.440607956591e-17
Sym=X
Ene= -15.895667
Spin=Alpha
Occup=1
     1    9.952762654310e-01
     2    2.356265082086e-02
     3    5.502977296300e-16
     4   -3.317071219490e-17
     5   -1.548504600047e-03
     6    8.396167842171e-05
     7    3.163586329490e-15
     8   -4.296313997802e-17
     9    3.278226751923e-04
    10   -2.151054639147e-03
    11   -3.650137835226e-03
    12   -3.262716596383e-03
    13    2.118450645674e-17
    14   -2.086992798493e-16
    15   -2.803110584911e-17
    16   -2.431020368270e-04
    17    1.631872473691e-04
    18    1.839921022700e-05
    19    8.538584751216e-17
    20    4.389993198429e-05
    21   -8.135036274533e-05
    22   -3.865612728717e-04
    23   -7.683147380519e-17
    24   -2.788520245868e-04
    25   -4.336660826318e-04
    26    1.106567142704e-04
    27   -1.147619207227e-04
    28    7.111012428582e-18
    29   -3.052193299613e-04
    30    4.103378440065e-17
    31   -2.431020368341e-04
    32    1.631872473698e-04
    33   -1.839921022718e-05
    34    3.579124493587e-17
    35    4.389993198429e-05
    36   -8.135036275240e-05
    37    3.865612728743e-04
    38    2.928952944320e-17
    39   -2.788520245886e-04
    40   -4.336660826316e-04
    41    1.106567142712e-04
    42   -1.147619207219e-04
    43    1.959016255661e-17
    44    3.052193299616e-04
    45    4.991589723059e-18
Sym=X
Ene= -1.674117
Spin=Alpha
Occup=1
     1   -1.517009731452e-01
     2    3.465232376948e-01
     3   -2.795778275324e-16
     4   -6.872238524621e-17
     5   -1.030770988929e-01
     6    1.190174054004e-01
     7    8.614591269957e-15
     8   -9.284556219290e-17
     9   -2.598822577535e-03
    10    3.518975550471e-02
    11   -1.355882780274e-02
    12   -4.814307606314e-03
    13   -2.344407401841e-17
    14   -1.316116862491e-16
    15   -3.660021666882e-17
    16   -1.147646119462e-01
    17    2.626567226223e-01
    18    1.127763362798e-01
    19    1.039054977580e-16
    20    3.328878837343e-02
    21    1.897545426928e-01
    22    4.515155601513e-02
    23   -1.978367681677e-16
    24    1.227278176462e-02
    25    2.328314897638e-02
    26   -7.254263347245e-04
    27   -1.652340810985e-03
    28    1.496666849243e-17
    29    7.955351965682e-03
    30    1.023872811569e-16
    31   -1.147646119462e-01
    32    2.626567226223e-01
    33   -1.127763362798e-01
    34    2.230552754605e-16
    35    3.328878837343e-02
    36    1.897545426928e-01
    37   -4.515155601512e-02
    38   -2.526426388651e-17
    39    1.227278176462e-02
    40    2.328314897638e-02
    41   -7.254263347229e-04
    42   -1.652340810982e-03
    43   -4.754168496786e-17
    44   -7.955351965681e-03
    45    1.620180852773e-16
Sym=X
Ene= -1.495108
Spin=Alpha
Occup=1
     1   -7.677118108766e-16
     2   -7.497337908175e-16
     3    3.106322969281e-01
     4   -1.659471147145e-16
     5   -4.715505751061e-16
     6   -3.350219309766e-15
     7   -1.321446823260e-04
     8   -3.307241278894e-16
     9   -4.660624792442e-16
    10   -8.257089482341e-17
    11    9.889452399050e-17
    12    4.567456129206e-16
    13    1.169993003809e-16
    14   -3.372343491476e-02
    15    3.329113652509e-18
    16    1.446008940244e-01
    17   -3.271011045566e-01
    18   -8.784630433686e-02
    19   -1.703539711121e-16
    20   -4.532269468462e-02
    21   -3.042916261486e-01
    22   -4.860876054236e-02
    23   -1.355450690318e-16
    24   -2.692781819016e-02
    25   -1.181511970262e-02
    26    3.500348654029e-03
    27   -2.759384191360e-03
    28    1.312664667793e-17
    29   -1.163680767390e-02
    30    2.428968916056e-17
    31   -1.446008940244e-01
    32    3.271011045566e-01
    33   -8.784630433686e-02
    34   -2.675042226213e-16
    35    4.532269468462e-02
    36    3.042916261486e-01
    37   -4.860876054236e-02
    38   -2.896946433360e-16
    39    2.692781819016e-02
    40    1.181511970262e-02
    41   -3.500348654029e-03
    42    2.759384191360e-03
    43    1.059149299207e-16
    44   -1.163680767390e-02
    45   -4.452860840442e-17
Sym=X
Ene= -0.945712
Spin=Alpha
Occup=1
     1    1.273316556668e-01
     2   -3.318632353524e-01
     3    2.605062119580e-16
     4    2.727199981901e-15
     5   -2.225239107411e-03
     6   -3.033384609192e-01
     7    4.590578724323e-15
     8    2.443031521706e-15
     9    6.177599785071e-03
    10   -5.317415481239e-03
    11    1.173859748928e-03
    12    2.899664049620e-04
    13    5.804493291559e-17
    14    1.552555969036e-16
    15   -4.351981862623e-18
    16   -1.123266011148e-01
    17    2.597859471204e-01
    18   -2.326068369628e-01
    19   -1.711257541738e-16
    20   -1.083614567650e-01
    21    3.872133847889e-01
    22   -9.674165161303e-02
    23   -5.947729657209e-16
    24   -5.345544798211e-02
    25   -1.866269374909e-02
    26    5.025779388893e-03
    27    1.309670090425e-03
    28    1.469332277921e-16
    29   -1.377912452311e-02
    30    5.696067646362e-17
    31   -1.123266011148e-01
    32    2.597859471204e-01
    33    2.326068369628e-01
    34   -4.537289906253e-17
    35   -1.083614567650e-01
    36    3.872133847889e-01
    37    9.674165161303e-02
    38   -7.063989811745e-16
    39   -5.345544798211e-02
    40   -1.866269374909e-02
    41    5.025779388893e-03
    42    1.309670090426e-03
    43   -1.533793402579e-16
    44    1.377912452311e-02
    45    1.140129171446e-16
Sym=X
Ene= -0.793888
Spin=Alpha
Occup=1
     1    6.123947641626e-15
     2   -1.691446147886e-14
     3    3.868333304086e-01
     4   -4.860148981586e-15
     5   -1.010836792403e-13
     6   -3.827195683427e-14
     7    8.849757992483e-02
     8   -2.556221145547e-15
     9   -3.977888090994e-14
    10   -7.945153111255e-15
    11   -8.836063722879e-16
    12    8.356863813175e-15
    13   -6.487082323217e-18
    14   -1.625517842863e-02
    15    3.100072489394e-16
    16   -7.239247794867e-02
    17    1.682385640636e-01
    18   -3.098887493108e-01
    19   -3.897707082852e-15
    20   -1.796972830223e-01
    21    2.791195290600e-01
    22   -1.655156884001e-01
    23   -2.237873316530e-15
    24   -9.735360097151e-02
    25   -2.005689424974e-02
    26    8.730759126124e-03
    27   -1.195132490506e-03
    28   -3.239348500588e-16
    29   -2.137338505339e-02
    30   -1.679160687397e-16
    31    7.239247794867e-02
    32   -1.682385640636e-01
    33   -3.098887493109e-01
    34   -3.842065017053e-15
    35    1.796972830222e-01
    36   -2.791195290601e-01
    37   -1.655156884002e-01
    38   -2.159401539641e-15
    39    9.735360097143e-02
    40    2.005689424975e-02
    41   -8.730759126126e-03
    42    1.195132490496e-03
    43    3.766039966183e-16
    44   -2.137338505338e-02
    45   -1.960401472815e-16
Sym=X
Ene= -0.828104
Spin=Alpha
Occup=1
     1   -3.389884872549e-02
     2    7.775944200397e-02
     3    1.011503185111e-13
     4    1.483482958137e-14
     5    3.863855160837e-01
     6    1.318054161182e-01
     7    3.063799616535e-14
     8    5.756871479659e-15
     9    1.622988932906e-01
    10    2.925195897940e-02
    11    3.839940481861e-03
    12   -3.238385651865e-02
    13    6.452188828026e-17
    14   -4.521276893521e-15
    15   -1.106339147403e-15
    16   -1.107296087168e-02
    17    2.163538502515e-02
    18   -1.983540456257e-01
    19    1.552425022837e-14
    20    2.888017302561e-01
    21    4.709333238471e-02
    22   -1.147165857169e-01
    23    1.024901849167e-14
    24    1.738503009991e-01
    25   -2.446601434477e-02
    26    2.013344568982e-03
    27    1.644941101279e-02
    28    1.345658193687e-15
    29    1.428061003193e-02
    30    5.214363547840e-16
    31   -1.107296087165e-02
    32    2.163538502506e-02
    33    1.983540456255e-01
    34    1.612535183876e-14
    35    2.888017302562e-01
    36    4.709333238455e-02
    37    1.147165857168e-01
    38    1.067284796623e-14
    39    1.738503009992e-01
    40   -2.446601434476e-02
    41    2.013344568979e-03
    42    1.644941101279e-02
    43   -1.335864816662e-15
    44   -1.428061003194e-02
    45    5.459433932257e-16
Sym=X
Ene= -0.761055
Spin=Alpha
Occup=1
     1    1.430461378447e-15
     2   -2.406455057652e-15
     3    5.312292551908e-15
     4    4.129960366239e-01
     5   -1.721672717328e-14
     6   -7.220299351626e-15
     7    3.277715975808e-15
     8    2.079601884708e-01
     9   -6.538330938183e-15
    10   -1.378193939187e-15
    11   -9.037893186419e-17
    12    1.340758603781e-15
    13    1.465474512607e-16
    14   -4.614166140289e-16
    15   -2.453770417930e-02
    16   -5.809492608433e-16
    17   -6.811170406348e-16
    18    5.357450188472e-15
    19    3.289261989409e-01
    20   -1.341007633938e-14
    21    3.084518529062e-15
    22    4.666293458944e-15
    23    1.957134887891e-01
    24   -7.128336063330e-15
    25    9.068034204247e-16
    26   -3.165615020213e-16
    27   -9.433443155391e-16
    28    3.231863600902e-02
    29   -6.391062504848e-16
    30    1.369856802617e-02
    31    2.131348570310e-16
    32   -3.111269252763e-15
    33   -1.350821794075e-14
    34    3.289261989409e-01
    35   -9.692099465772e-15
    36   -6.970928720491e-15
    37   -7.435850164667e-15
    38    1.957134887891e-01
    39   -6.423361456968e-15
    40    1.514041814097e-15
    41   -1.465878082496e-16
    42   -6.748573903214e-16
    43   -3.231863600902e-02
    44    3.265298466852e-16
    45    1.369856802617e-02
Sym=X
Ene= -0.589916
Spin=Alpha
Occup=1
     1    3.654816566439e-16
     2   -6.947089926022e-16
     3    1.391643135592e-02
     4   -9.844051269978e-16
     5    1.637749406168e-15
     6    3.471023899341e-15
     7   -7.517475358014e-02
     8   -5.101589881664e-16
     9    8.663559707470e-16
    10   -2.461306287116e-16
    11   -4.237388885901e-16
    12   -6.004627367759e-16
    13    3.864816284445e-16
    14   -4.929752606972e-02
    15    7.156291340022e-17
    16    4.110487551697e-03
    17   -4.117273525633e-03
    18   -2.561659271616e-01
    19   -3.569216146722e-15
    20    4.056174532090e-01
    21   -5.410463918261e-02
    22   -1.952820524529e-01
    23   -2.584116427085e-15
    24    2.768064135184e-01
    25   -1.696566109064e-02
    26    2.426478224451e-03
    27    1.689402005226e-02
    28   -2.158281295761e-16
    29    1.412350509428e-02
    30   -9.545248628414e-17
    31   -4.110487551699e-03
    32    4.117273525634e-03
    33   -2.561659271616e-01
    34    2.067172287855e-15
    35   -4.056174532090e-01
    36    5.410463918261e-02
    37   -1.952820524529e-01
    38    1.683579969990e-15
    39   -2.768064135184e-01
    40    1.696566109064e-02
    41   -2.426478224451e-03
    42   -1.689402005226e-02
    43   -7.782485992493e-17
    44    1.412350509428e-02
    45    3.881839288872e-17
Sym=X
Ene= -0.528410
Spin=Alpha
Occup=1
     1    7.297047051225e-16
     2    1.281459970897e-16
     3    1.463752723588e-16
     4    1.283044398839e-15
     5    1.141577356345e-16
     6   -1.800034509600e-15
     7    5.534455733430e-16
     8    1.653065977613e-15
     9    6.181492202630e-16
    10   -2.067710787244e-16
    11    9.103791857932e-17
    12   -4.319606540854e-17
    13   -6.245585041882e-02
    14   -3.907301515715e-16
    15   -6.876422463101e-17
    16   -5.625593230840e-16
    17    2.960594443698e-17
    18   -1.733206820068e-15
    19    4.596921678679e-01
    20    2.912208482624e-15
    21    2.047533523952e-15
    22   -3.815892507076e-16
    23    3.471929257854e-01
    24    2.382717638819e-15
    25   -7.294008214510e-17
    26   -1.739780666700e-16
    27   -1.165879783331e-17
    28    2.506082907752e-02
    29    2.135032723795e-16
    30    1.059983776903e-02
    31    3.077808164783e-16
    32    1.139841243321e-16
    33   -1.487907336083e-15
    34   -4.596921678679e-01
    35   -2.132578715384e-15
    36    5.398044566362e-16
    37   -1.414902233489e-15
    38   -3.471929257854e-01
    39   -1.567397024068e-15
    40    1.764967696363e-16
    41   -4.437522612761e-17
    42   -1.083783774013e-16
    43    2.506082907751e-02
    44    3.867141320575e-17
    45   -1.059983776903e-02
Sym=X
Ene= -0.503532
Spin=Alpha
Occup=1
     1   -7.254184027605e-02
     2    1.622794988839e-01
     3    6.241653724121e-16
     4   -9.010854481128e-14
     5    5.095258062207e-01
     6    5.077745951903e-01
     7    1.242220564632e-14
     8   -9.990236873415e-14
     9    2.641900198407e-01
    10   -6.423653243412e-02
    11    4.026612756814e-03
    12    2.955482551044e-02
    13   -1.005855321102e-17
    14   -3.725867486660e-16
    15   -1.411604091735e-15
    16    1.630154718044e-02
    17   -4.719848605181e-02
    18   -4.834004909559e-02
    19    5.839490988541e-14
    20   -3.628124460334e-01
    21   -7.005493350242e-02
    22   -3.567540513656e-02
    23    6.880820421046e-14
    24   -3.039633446208e-01
    25   -1.017432936524e-02
    26    1.467062708374e-03
    27    1.854011257960e-03
    28   -1.971268516616e-15
    29   -3.806623301981e-03
    30   -1.284446985091e-15
    31    1.630154718044e-02
    32   -4.719848605180e-02
    33    4.834004909559e-02
    34    5.737845453929e-14
    35   -3.628124460334e-01
    36   -7.005493350245e-02
    37    3.567540513657e-02
    38    6.805691293864e-14
    39   -3.039633446208e-01
    40   -1.017432936523e-02
    41    1.467062708376e-03
    42    1.854011257962e-03
    43    2.078879585397e-15
    44    3.806623301982e-03
    45   -1.323871304074e-15
Sym=X
Ene= 0.077437
Spin=Alpha
Occup=0
     1   -1.270925240981e-14
     2    3.106102332196e-14
     3    3.505628815452e-16
     4    5.437931091747e-01
     5    9.017188492372e-14
     6    7.967487962699e-14
     7    1.585561828334e-15
     8    5.973711110707e-01
     9    4.121666092659e-14
    10   -1.109273854701e-14
    11    7.123398698679e-16
    12    6.088726041274e-15
    13    6.684247596748e-17
    14   -1.647445239424e-16
    15    1.193923344599e-02
    16    2.889742755652e-15
    17   -8.091101127970e-15
    18   -8.243060180821e-15
    19   -3.435564131817e-01
    20   -5.953676993626e-14
    21   -1.055206471584e-14
    22   -4.868654871127e-15
    23   -4.069747214828e-01
    24   -4.680692081634e-14
    25   -1.271227187213e-15
    26    2.548014085718e-16
    27    5.118619535502e-16
    28    1.211767855960e-02
    29   -4.801215584009e-16
    30    7.588862311027e-03
    31    2.938696339667e-15
    32   -7.629709205684e-15
    33    8.339384566403e-15
    34   -3.435564131817e-01
    35   -5.955396183488e-14
    36   -1.338034718061e-14
    37    5.985462233961e-15
    38   -4.069747214828e-01
    39   -4.762808917953e-14
    40   -1.459785541617e-15
    41    6.533764281028e-16
    42    4.227871431940e-16
    43   -1.211767855960e-02
    44    7.008198946209e-16
    45    7.588862311027e-03
Sym=X
Ene= 0.437203
Spin=Alpha
Occup=0
     1   -1.209193628441e-01
     2    1.561434778452e-01
     3   -6.183043336864e-15
     4   -2.924351780389e-16
     5   -3.469136866896e-01
     6    2.543431194365e+00
     7   -1.344562608506e-13
     8    5.060398724147e-16
     9   -1.078518983767e+00
    10   -5.998886614669e-02
    11    1.365912010452e-02
    12   -1.614246401516e-02
    13    1.668309823022e-16
    14    3.990023009222e-15
    15    3.646822016854e-17
    16    7.755378804904e-02
    17   -1.985567257963e-01
    18   -3.219802838224e-01
    19   -3.380816345736e-16
    20    7.508539758320e-03
    21   -1.098251944935e+00
    22   -9.392047304242e-01
    23    2.170104433984e-16
    24   -7.504144493931e-02
    25   -2.099654006214e-02
    26    4.044007049206e-03
    27   -2.901420315519e-02
    28   -2.914893544722e-16
    29   -1.918588137980e-02
    30   -8.911864659032e-17
    31    7.755378804903e-02
    32   -1.985567257963e-01
    33    3.219802838224e-01
    34   -1.854608505408e-16
    35    7.508539758329e-03
    36   -1.098251944935e+00
    37    9.392047304241e-01
    38   -2.629638855403e-16
    39   -7.504144493925e-02
    40   -2.099654006212e-02
    41    4.044007049215e-03
    42   -2.901420315517e-02
    43   -1.230535728258e-16
    44    1.918588137980e-02
    45    1.340536745681e-16
Sym=X
Ene= 0.558596
Spin=Alpha
Occup=0
     1   -7.233908502701e-15
     2    3.801991915048e-14
     3    3.388194951296e-01
     4   -1.001277908354e-15
     5   -2.849359194640e-14
     6    6.791948623801e-14
     7    3.112642239286e+00
     8    3.835640920399e-16
     9   -2.184059340891e-14
    10   -1.217471096463e-14
    11    1.035064151301e-14
    12    1.864316829331e-15
    13    2.180082921964e-16
    14   -1.565991562059e-02
    15   -6.250444493167e-17
    16   -7.836714451300e-02
    17    1.682318267102e-01
    18    6.091564189624e-02
    19   -4.723497597733e-16
    20    1.775102434696e-01
    21    2.015022409910e+00
    22    9.820357232763e-01
    23    9.284676799986e-16
    24    7.367257794103e-01
    25    5.836471978442e-02
    26    4.665104023387e-03
    27   -7.604987379620e-03
    28   -4.403070593080e-17
    29    1.994593757138e-02
    30   -3.846543621960e-17
    31    7.836714451301e-02
    32   -1.682318267102e-01
    33    6.091564189629e-02
    34    6.874026201201e-16
    35   -1.775102434696e-01
    36   -2.015022409911e+00
    37    9.820357232764e-01
    38   -5.059737424433e-16
    39   -7.367257794103e-01
    40   -5.836471978439e-02
    41   -4.665104023371e-03
    42    7.604987379634e-03
    43    9.545125908843e-17
    44    1.994593757138e-02
    45    4.217254873779e-16
Sym=X
Ene= 0.753056
Spin=Alpha
Occup=0
     1    3.213113156776e-03
     2   -1.020604048920e+00
     3    2.132213472314e-14
     4    6.021300225432e-15
     5   -4.135265904161e-01
     6    1.191899438001e+00
     7   -6.721427915867e-15
     8   -4.125409767523e-15
     9    6.748563176359e-01
    10   -2.263292244008e-01
    11   -2.004081279769e-01
    12   -1.960845362468e-01
    13    2.270440141777e-16
    14    2.884018669233e-15
    15    2.525847165110e-16
    16   -1.567210459916e-02
    17   -2.517878984858e-01
    18    7.966148020613e-02
    19   -6.110960431286e-16
    20    1.994782785536e-02
    21    4.297287915764e-01
    22    1.719289106726e-01
    23    1.158092690360e-16
    24   -6.853824117765e-02
    25   -9.271593808306e-02
    26   -7.404145031213e-02
    27   -1.076998691206e-01
    28   -3.764689697618e-16
    29   -6.045464391578e-02
    30   -2.898855746620e-16
    31   -1.567210459916e-02
    32   -2.517878984858e-01
    33   -7.966148020612e-02
    34    7.145277137559e-17
    35    1.994782785536e-02
    36    4.297287915765e-01
    37   -1.719289106726e-01
    38   -1.037724269954e-15
    39   -6.853824117766e-02
    40   -9.271593808307e-02
    41   -7.404145031214e-02
    42   -1.076998691206e-01
    43   -6.591278354311e-16
    44    6.045464391578e-02
    45    5.033490297742e-16
Sym=X
Ene= 0.802978
Spin=Alpha
Occup=0
     1    1.588370273638e-02
     2   -5.030169712130e-01
     3    1.962843318168e-13
     4    3.403837421108e-15
     5    6.919325971350e-01
     6    1.695268624069e+00
     7   -2.763291708677e-13
     8   -7.212455920534e-15
     9   -1.398742009647e+00
    10    1.584154295426e-01
    11   -9.197200084472e-02
    12   -1.290614397592e-01
    13   -7.073254382281e-17
    14    3.184156888897e-14
    15   -3.735110301730e-16
    16   -6.702777518048e-03
    17   -1.614270199532e-01
    18    1.371564904591e-01
    19    5.958213320811e-17
    20    2.164354356201e-01
    21   -4.400604749452e-01
    22   -4.549715675550e-01
    23    2.632479577710e-15
    24   -4.679169575533e-02
    25   -2.465165995530e-01
    26   -7.786214353908e-03
    27   -2.630531649779e-02
    28    3.051668768494e-16
    29   -5.118848610535e-02
    30    1.323163255578e-16
    31   -6.702777518034e-03
    32   -1.614270199533e-01
    33   -1.371564904590e-01
    34    2.027877353907e-15
    35    2.164354356201e-01
    36   -4.400604749449e-01
    37    4.549715675550e-01
    38    5.908975328303e-16
    39   -4.679169575532e-02
    40   -2.465165995529e-01
    41   -7.786214353937e-03
    42   -2.630531649779e-02
    43   -6.540846859481e-16
    44    5.118848610530e-02
    45   -1.742696589734e-16
Sym=X
Ene= 0.833951
Spin=Alpha
Occup=0
     1    2.274664496634e-16
     2   -7.797887133458e-15
     3    8.645854714957e-14
     4   -8.906926409654e-01
     5    1.454774860093e-15
     6    1.431197178602e-14
     7   -1.553920828375e-13
     8    1.224872483228e+00
     9   -3.309033226827e-15
    10    4.707165189153e-18
    11   -2.231890153071e-15
    12   -1.073346565361e-15
    13    3.865470422453e-16
    14    1.403670750842e-14
    15    4.926196074437e-02
    16   -2.991833453263e-15
    17   -2.504761021848e-15
    18    2.479389155632e-14
    19   -1.831747123590e-01
    20    4.243111294530e-15
    21   -5.721854161641e-14
    22   -7.681569156384e-15
    23   -1.001016074519e-01
    24   -7.760028480296e-15
    25   -1.764498061510e-14
    26    2.433872357481e-15
    27   -3.410767763319e-15
    28   -7.857892433157e-02
    29   -1.258040388616e-14
    30   -2.572205213959e-02
    31    2.656091682012e-15
    32   -1.190514553826e-15
    33    2.156918567695e-14
    34   -1.831747123590e-01
    35   -2.046296514373e-15
    36    5.686739624288e-14
    37   -4.023577627457e-15
    38   -1.001016074519e-01
    39    6.421861226534e-15
    40    1.416332380379e-14
    41   -3.560202639131e-15
    42    2.324986676074e-15
    43    7.857892433157e-02
    44   -1.121380517284e-14
    45   -2.572205213959e-02
Sym=X
Ene= 0.833927
Spin=Alpha
Occup=0
     1    1.838977084469e-15
     2   -1.129700639576e-13
     3   -8.849646530920e-01
     4   -8.805781743991e-14
     5    1.352071891205e-13
     6    3.354365408595e-13
     7    1.544016296206e+00
     8    1.210067945790e-13
     9   -2.684424115842e-13
    10    2.293217854270e-14
    11   -1.907893434684e-14
    12   -3.052339886169e-14
    13   -4.495053944253e-16
    14   -1.433185622753e-01
    15    5.539407658160e-15
    16    2.884190019704e-02
    17    3.280149427547e-03
    18   -2.369987413312e-01
    19   -1.685804369973e-14
    20   -2.059394711754e-02
    21    5.663906910739e-01
    22    5.093535753268e-02
    23   -1.139794449041e-14
    24    4.793047512195e-02
    25    1.556683122854e-01
    26   -2.968636280788e-02
    27    2.614850945730e-02
    28   -7.337417363903e-15
    29    1.227213121009e-01
    30   -3.190932644497e-15
    31   -2.884190019704e-02
    32   -3.280149427646e-03
    33   -2.369987413312e-01
    34   -1.822031875286e-14
    35    2.059394711764e-02
    36   -5.663906910740e-01
    37    5.093535753284e-02
    38   -9.498073937381e-15
    39   -4.793047512197e-02
    40   -1.556683122855e-01
    41    2.968636280787e-02
    42   -2.614850945732e-02
    43    7.035065438595e-15
    44    1.227213121009e-01
    45   -1.843998684319e-15
Sym=X
Ene= 1.019185
Spin=Alpha
Occup=0
     1   -5.616701766178e-02
     2   -2.921054715782e-01
     3    1.306234606045e-15
     4   -1.473156871584e-15
     5    2.148265166939e-01
     6   -7.379453510334e-01
     7   -1.148546698118e-14
     8    4.201270762349e-16
     9    1.254462235795e-02
    10   -4.106427128869e-01
    11    5.959986081094e-02
    12   -6.501531480791e-02
    13   -1.254702014351e-15
    14   -1.143039409928e-14
    15    7.259430027990e-16
    16   -3.567215343010e-03
    17    2.050277139079e-01
    18   -5.080074564413e-01
    19    3.276909055388e-16
    20   -2.917413540899e-02
    21    3.656645762750e-04
    22    9.883842126639e-01
    23    4.149071204771e-18
    24    3.214006295094e-01
    25    1.731865707266e-01
    26    9.171915989316e-02
    27    9.724450133438e-02
    28   -9.437600372920e-16
    29    3.037644415902e-02
    30    5.472260057076e-17
    31   -3.567215343011e-03
    32    2.050277139079e-01
    33    5.080074564413e-01
    34    7.339214930224e-16
    35   -2.917413540895e-02
    36    3.656645762934e-04
    37   -9.883842126638e-01
    38    3.417464493567e-16
    39    3.214006295094e-01
    40    1.731865707266e-01
    41    9.171915989315e-02
    42    9.724450133437e-02
    43   -6.780793126571e-16
    44   -3.037644415902e-02
    45    1.032146756695e-15
Sym=X
Ene= 1.069606
Spin=Alpha
Occup=0
     1   -3.424665798259e-15
     2   -5.719699979833e-14
     3   -8.215110227257e-02
     4    5.443896372340e-17
     5    4.929368358751e-15
     6    3.447295593186e-13
     7    6.105185483387e-01
     8    1.227873661482e-16
     9   -9.890883937082e-14
    10   -9.062786126779e-15
    11   -1.338009442827e-14
    12   -1.736461394589e-14
    13   -1.728672683918e-15
    14    1.964131110363e-01
    15    5.225009938292e-16
    16   -2.149821165124e-02
    17   -4.407823924724e-01
    18    4.153508148653e-01
    19    1.631879223490e-14
    20    3.584792683481e-01
    21    1.129768068699e+00
    22   -4.659293898168e-01
    23   -1.915040091631e-14
    24   -2.317076793575e-01
    25   -1.788079688071e-01
    26   -1.617394784704e-01
    27   -2.059528850280e-01
    28    6.111191562181e-16
    29   -2.477525921651e-02
    30    2.113423530505e-16
    31    2.149821165125e-02
    32    4.407823924726e-01
    33    4.153508148653e-01
    34   -1.243981523773e-14
    35   -3.584792683481e-01
    36   -1.129768068699e+00
    37   -4.659293898167e-01
    38    1.529355734782e-14
    39    2.317076793575e-01
    40    1.788079688071e-01
    41    1.617394784704e-01
    42    2.059528850281e-01
    43   -3.849680800254e-16
    44   -2.477525921651e-02
    45    3.531621540391e-16
Sym=X
Ene= 1.143856
Spin=Alpha
Occup=0
     1    1.500706955054e-02
     2    1.992990856887e-01
     3    3.513569830784e-15
     4    2.193944002766e-15
     5   -2.024743483944e-01
     6   -5.926464144828e-01
     7   -2.888262651398e-14
     8   -2.941180995658e-15
     9    9.913350821990e-01
    10    1.617127587061e-01
    11   -5.205716609539e-02
    12    5.666860061284e-04
    13   -3.183868102350e-14
    14   -7.643047599297e-16
    15    5.710826558173e-18
    16   -2.953387400619e-03
    17   -7.675023226933e-03
    18   -2.158627675497e-01
    19    1.493040841865e-13
    20    5.727901819343e-01
    21    3.401199001107e-01
    22    3.713371845022e-01
    23   -1.853661369896e-13
    24   -9.068864579046e-01
    25    4.677089570726e-03
    26   -6.005937973414e-02
    27    1.773565622085e-02
    28    9.855405035482e-15
    29    5.484009987640e-03
    30    2.752864269578e-16
    31   -2.953387400619e-03
    32   -7.675023226928e-03
    33    2.158627675497e-01
    34   -1.561914956402e-13
    35    5.727901819343e-01
    36    3.401199001108e-01
    37   -3.713371845022e-01
    38    1.925919940597e-13
    39   -9.068864579046e-01
    40    4.677089570733e-03
    41   -6.005937973413e-02
    42    1.773565622085e-02
    43    1.001079204250e-14
    44   -5.484009987641e-03
    45   -1.433196498895e-15

======= END OF MOLDEN-FORMATTED INPUT FILE =======


        *************************************************************
        *                                                           *
        *  Thank you very much for using Q-Chem.  Have a nice day.  *
        *                                                           *
        *************************************************************


