                  Welcome to Q-Chem
     A Quantum Leap Into The Future Of Chemistry


 Q-Chem 6.0 (devel), Q-Chem, Inc., Pleasanton, CA (2022)

 E. Epifanovsky,  A. T. B. Gilbert,  Xintian Feng,  Joonho Lee,  Yuezhi Mao,  
 N. Mardirossian,  P. Pokhilko,  A. White,  M. Wormit,  M. P. Coons,  
 A. L. Dempwolff,  Zhengting Gan,  D. Hait,  P. R. Horn,  L. D. Jacobson,  
 I. Kaliman,  J. Kussmann,  A. W. Lange,  Ka Un Lao,  D. S. Levine,  Jie Liu,  
 S. C. McKenzie,  A. F. Morrison,  K. Nanda,  F. Plasser,  D. R. Rehn,  
 M. L. Vidal,  Zhi-Qiang You,  Ying Zhu,  B. Alam,  B. Albrecht,  
 A. Aldossary,  E. Alguire,  J. H. Andersen,  V. Athavale,  D. Barton,  
 K. Begam,  A. Behn,  N. Bellonzi,  Y. A. Bernard,  E. J. Berquist,  
 H. Burton,  A. Carreras,  K. Carter-Fenk,  Romit Chakraborty,  
 Chandrima Chakravarty,  Junhan Chen,  A. D. Chien,  K. D. Closser,  
 V. Cofer-Shabica,  L. Cunha,  S. Dasgupta,  Jia Deng,  M. de Wergifosse,  
 M. Diedenhofen,  Hainam Do,  S. Ehlert,  Po-Tung Fang,  S. Fatehi,  
 Qingguo Feng,  T. Friedhoff,  B. Ganoe,  J. Gayvert,  Qinghui Ge,  
 G. Gidofalvi,  M. Goldey,  J. Gomes,  C. Gonzalez-Espinoza,  S. Gulania,  
 A. Gunina,  J. A. Gyamfi,  M. W. D. Hanson-Heine,  P. H. P. Harbach,  
 A. W. Hauser,  M. F. Herbst,  M. Hernandez Vera,  M. Hodecker,  
 Z. C. Holden,  S. Houck,  Xunkun Huang,  Kerwin Hui,  B. C. Huynh,  
 K. Ikeda,  M. Ivanov,  Hyunjun Ji,  Zuxin Jin,  Hanjie Jiang,  B. Kaduk,  
 S. Kaehler,  R. Kang,  K. Khistyaev,  Jaehoon Kim,  Yongbin Kim,  
 P. Klunzinger,  Z. Koczor-Benda,  Joong Hoon Koh,  D. Kosenkov,  
 Saikiran Kotaru,  L. Koulias,  T. Kowalczyk,  C. M. Krauter,  K. Kue,  
 A. Kunitsa,  T. Kus,  A. Landau,  K. V. Lawler,  D. Lefrancois,  S. Lehtola,  
 Rain Li,  Shaozhi Li,  Yi-Pei Li,  Jiashu Liang,  M. Liebenthal,  
 Hung-Hsuan Lin,  You-Sheng Lin,  Fenglai Liu,  Kuan-Yu Liu,  
 M. Loipersberger,  A. Luenser,  C. Malbon,  A. Manjanath,  P. Manohar,  
 E. Mansoor,  S. F. Manzer,  Shan-Ping Mao,  A. V. Marenich,  T. Markovich,  
 S. Mason,  F. Matz,  S. A. Maurer,  P. F. McLaughlin,  M. F. S. J. Menger,  
 J.-M. Mewes,  S. A. Mewes,  P. Morgante,  Mohammad Mostafanejad,  
 J. W. Mullinax,  K. J. Oosterbaan,  G. Paran,  V. Parravicini,  
 Alexander C. Paul,  Suranjan K. Paul,  F. Pavosevic,  Zheng Pei,  S. Prager,  
 E. I. Proynov,  E. Ramos,  B. Rana,  A. E. Rask,  A. Rettig,  R. M. Richard,  
 F. Rob,  E. Rossomme,  T. Scheele,  M. Scheurer,  M. Schneider,  
 P. E. Schneider,  N. Sergueev,  S. M. Sharada,  Hengyuan Shen,  
 W. Skomorowski,  D. W. Small,  C. J. Stein,  Yingli Su,  Yu-Chuan Su,  
 E. J. Sundstrom,  Zhen Tao,  J. Thirman,  Hung-Yi Tsai,  T. Tsuchimochi,  
 N. M. Tubman,  C. Utku,  S. P. Veccham,  O. Vydrov,  J. Wenzel,  
 Jonathan Wong,  J. Witte,  A. Yamada,  Chou-Hsun Yang,  Kun Yao,  
 S. Yeganeh,  S. R. Yost,  A. Zech,  F. Zeller,  Igor Ying Zhang,  
 Xing Zhang,  Yu Zhang,  D. Zuev,  A. Aspuru-Guzik,  A. T. Bell,  
 N. A. Besley,  K. B. Bravaya,  B. R. Brooks,  D. Casanova,  Jeng-Da Chai,  
 Hsing-Ta Chen,  S. Coriani,  C. J. Cramer,  A. E. DePrince, III,  
 R. A. DiStasio Jr.,  A. Dreuw,  B. D. Dunietz,  T. R. Furlani,  
 W. A. Goddard III,  S. Grimme,  S. Hammes-Schiffer,  T. Head-Gordon,  
 W. J. Hehre,  Chao-Ping Hsu,  T.-C. Jagau,  Yousung Jung,  A. Klamt,  
 Jing Kong,  D. S. Lambrecht,  Xiangyuan Li,  WanZhen Liang,  N. J. Mayhall,  
 C. W. McCurdy,  J. B. Neaton,  T. Neudecker,  C. Ochsenfeld,  
 J. A. Parkhill,  R. Peverati,  V. A. Rassolov,  Haisheng Ren,  Yihan Shao,  
 L. V. Slipchenko,  R. P. Steele,  J. E. Subotnik,  A. J. W. Thom,  
 A. Tkatchenko,  D. G. Truhlar,  T. Van Voorhis,  Fan Wang,  
 T. A. Wesolowski,  K. B. Whaley,  H. L. Woodcock III,  P. M. Zimmerman,  
 S. Faraji,  P. M. W. Gill,  M. Head-Gordon,  J. M. Herbert,  A. I. Krylov

 Contributors to earlier versions of Q-Chem not listed above: 
 R. D. Adamson,  B. Austin,  R. Baer,  J. Baker,  G. J. O. Beran,  
 K. Brandhorst,  S. T. Brown,  E. F. C. Byrd,  Arup K. Chakraborty,  
 G. K. L. Chan,  Chun-Min Chang,  Yunqing Chen,  C.-L. Cheng,  
 Siu Hung Chien,  D. M. Chipman,  D. L. Crittenden,  H. Dachsel,  
 R. J. Doerksen,  A. D. Dutoi,  R. G. Edgar,  J. Fosso-Tande,  
 L. Fusti-Molnar,  D. Ghosh,  A. Ghysels,  A. Golubeva-Zadorozhnaya,  
 J. Gonthier,  M. S. Gordon,  S. R. Gwaltney,  G. Hawkins,  J. E. Herr,  
 A. Heyden,  S. Hirata,  E. G. Hohenstein,  G. Kedziora,  F. J. Keil,  
 C. Kelley,  Jihan Kim,  R. A. King,  R. Z. Khaliullin,  P. P. Korambath,  
 W. Kurlancheek,  A. Laurent,  A. M. Lee,  M. S. Lee,  S. V. Levchenko,  
 Ching Yeh Lin,  D. Liotard,  E. Livshits,  R. C. Lochan,  I. Lotan,  
 L. A. Martinez-Martinez,  P. E. Maslen,  N. Nair,  D. P. O'Neill,  
 D. Neuhauser,  E. Neuscamman,  C. M. Oana,  R. Olivares-Amaya,  R. Olson,  
 T. M. Perrine,  B. Peters,  P. A. Pieniazek,  A. Prociuk,  Y. M. Rhee,  
 J. Ritchie,  M. A. Rohrdanz,  E. Rosta,  N. J. Russ,  H. F. Schaefer III,  
 M. W. Schmidt,  N. E. Schultz,  S. Sharma,  N. Shenvi,  C. D. Sherrill,  
 A. C. Simmonett,  A. Sodt,  T. Stein,  D. Stuck,  K. S. Thanthiriwatte,  
 V. Vanovschi,  L. Vogt,  Tao Wang,  A. Warshel,  M. A. Watson,  
 C. F. Williams,  Q. Wu,  X. Xu,  Jun Yang,  W. Zhang,  Yan Zhao

   Please cite Q-Chem as follows:
  "Software for the frontiers of quantum chemistry:
   An overview of developments in the Q-Chem 5 package"
   J. Chem. Phys. 155, 084801 (2021)
   https://doi.org/10.1063/5.0055522 (open access)

 Q-Chem 6.0.1 for Intel X86 EM64T Linux

 Parts of Q-Chem use Armadillo 9.900.5 (Nocturnal Misbehaviour).
 http://arma.sourceforge.net/

 Q-Chem begins on Fri Jan 13 10:07:33 2023  

 Host: atlas-137
0

     Scratch files written to ./qchem63162//
 Processing $rem in /scratch/abel/SOFTWARE/qchem/config/preferences:
 Processing $rem in /dipc/acebg/.qchemrc:

 Checking the input file for inconsistencies... 	...done.

--------------------------------------------------------------
User input:
--------------------------------------------------------------
$comment
 RAS-SF CALCULATION
$end

$molecule
 READ no2.molecule
$end

$rem
!**CALCULATION TYPE***     
JOBTYPE            sp    
EXCHANGE           HF
CORRELATION        RASCI    !RASCI=Casanova; RASCI2=Zimmerman
BASIS              GEN !basis ANO-R
PURECART           11

!***SCF REFERENCE***
SKIP_SCFMAN        FALSE
UNRESTRICTED       FALSE
!SCF_GUESS          core
!SCF_GUESS_MIX      FALSE
!SCF_GUESS_ALWAYS   FALSE
MAX_SCF_CYCLES     500
SCF_CONVERGENCE    8
!SCF_ALGORITHM      DIIS !DIIS,DM,DIIS_DM,GDM,DIIS_GDM,GD

SYMMETRY           TRUE !use of symmetry for calculating integrals
SYM_IGNORE         FALSE !turn off using symmetry
SYM_TOL            5 !tolerance for determining point group

!THRESH             14
SCF_FINAL_PRINT     1 !0,1,2,3

!****RAS-SF****
RAS_ROOTS          10       !number of RAS-CI roots to be computed
SET_ITER           100     !number of iterations in RASCI
RAS_ELEC           11       !number of electrons in RAS2
!RAS_ELEC_ALPHA            !spin-α electrons in RAS2 
!RAS_ELEC_BETA             !spin-β electrons in RAS2

RAS_ACT            9       !number of orbitals in RAS2 
!RAS_ACT_ORB   [7,8,9,10,11,12,13,14,15]  !user-selected RAS2 orbitals
RAS_OCC            6       !number of orbitals in RAS1
N_FROZEN_CORE      0     !Number of frozen core orbitals
N_FROZEN_VIRTUAL   0      !Number of frozen virtual orbitals
RAS_NATORB         TRUE    !computation of the natural orbital occupancies
!RAS_NATORB_STATE  0      !Saves NO of i RAS computed state in .fchk ﬁle

RAS_DO_HOLE        TRUE   !presence of hole excitations in RAS-CI wave function
RAS_DO_PART        TRUE   !presence of particle excitations
RAS_AMPL_PRINT     10     !threshold (×10 2 ) for the CI amplitudes

RAS_GUESS_CS       0      !number of closed shell guess conﬁgurations
RAS_SPIN_MULT      0      !spin multiplicity: 0=any, 2n+1=defined 
RAS_SRDFT          FALSE  !short-range density functional RAS-CI
RAS_NFRAG          0     !fragments of excitation analysis in RASCI

RAS_PRINT          2      !level of information
RAS_NATORB         TRUE   !computation of the natural orbital occupancies
!RAS_NATORB_STATE  0      !Saves NO of i RAS computed state in .fchk ﬁle
RAS_FOD            TRUE

!****RAS-SOC****
CALC_SOC           TRUE   !calculate SOC for EOM-CC, RAS-CI, ADC, TDDFT/TDA and TDDFT
!RAS_SOC_2E        TRUE   !two-electron mean-ﬁeld contribution, default=true
RAS_SOC_SYM_DENS   TRUE   !averaging of α and β densities

!****MEMORY****
MEM_TOTAL          60000 !Default 2000 MB
MEM_STATIC         16000  !Default 64 MB

!**Molecular Properties and Analysis **                                                                                          
GUI                2
STATE_ANALYSIS     TRUE
MOLDEN_FORMAT      TRUE
PRINT_ORBITALS     20
$end                                           

$basis
N     0
S   13   1.00
  45831.05000000            -0.0085750765
   6803.94200000             0.0805176161
   1441.54300000            -0.4206892850
    394.11230000             2.6951772739
    128.27310000            -3.7508855844
     46.66854000             3.1322846455
     18.09257000            -2.1618745575
      7.21535200             1.3717060023
      2.88655900            -0.8166624481
      1.13830700             0.4543950912
      0.43702200            -0.2321796902
      0.16175280             0.1027075345
      0.05986878            -0.0299518640
S   13   1.00
  45831.05000000             0.0001578820
   6803.94200000             0.0008911159
   1441.54300000             0.0045553868
    394.11230000             0.0184020951
    128.27310000             0.0609841213
     46.66854000             0.1633385951
     18.09257000             0.3350192053
      7.21535200             0.4092201761
      2.88655900             0.1592095494
      1.13830700             0.0011237650
      0.43702200             0.0036104375
      0.16175280            -0.0012273272
      0.05986878             0.0005036816
S   13   1.00
  45831.05000000             0.0015371724
   6803.94200000            -0.0102151024
   1441.54300000             0.1098664791
    394.11230000            -0.4694074837
    128.27310000             3.1782088452
     46.66854000            -5.4135949873
     18.09257000             5.1381728693
      7.21535200            -3.5875645778
      2.88655900             2.1366809155
      1.13830700            -1.1669054180
      0.43702200             0.5887973467
      0.16175280            -0.2590580165
      0.05986878             0.0754014631
S   13   1.00
  45831.05000000            -0.0002642418
   6803.94200000            -0.0030930629
   1441.54300000            -0.0023182796
    394.11230000            -0.1023593801
    128.27310000            -0.0721980199
     46.66854000            -2.4694319940
     18.09257000             4.8361336891
      7.21535200            -4.3367202932
      2.88655900             2.7333645937
      1.13830700            -1.4750108521
      0.43702200             0.7304760424
      0.16175280            -0.3182864498
      0.05986878             0.0923167420
S   13   1.00
  45831.05000000             0.0002252726
   6803.94200000            -0.0001933213
   1441.54300000             0.0117932904
    394.11230000            -0.0268674033
    128.27310000             0.2702766160
     46.66854000            -0.5431616401
     18.09257000             3.2968294863
      7.21535200            -6.3070362909
      2.88655900             6.1553604545
      1.13830700            -4.1910437645
      0.43702200             2.3179166208
      0.16175280            -1.0580223797
      0.05986878             0.3111688702
S   13   1.00
  45831.05000000            -0.0000363109
   6803.94200000            -0.0002053721
   1441.54300000            -0.0010499427
    394.11230000            -0.0042907952
    128.27310000            -0.0144694657
     46.66854000            -0.0412070835
     18.09257000            -0.0954241730
      7.21535200            -0.1675980653
      2.88655900            -0.1051411850
      1.13830700             0.2908298564
      0.43702200             0.6379786434
      0.16175280             0.2327506567
      0.05986878             0.0056985008
S   13   1.00
  45831.05000000            -0.0000785417
   6803.94200000            -0.0005862309
   1441.54300000            -0.0017628026
    394.11230000            -0.0149053062
    128.27310000            -0.0175740252
     46.66854000            -0.2033860849
     18.09257000            -0.0478263801
      7.21535200            -1.4819373740
      2.88655900             4.7829621589
      1.13830700            -6.1077359399
      0.43702200             4.9058610595
      0.16175280            -2.7845959811
      0.05986878             0.9024702434
S   13   1.00
  45831.05000000            -0.0000448889
   6803.94200000            -0.0002559357
   1441.54300000            -0.0012924119
    394.11230000            -0.0053971941
    128.27310000            -0.0178830949
     46.66854000            -0.0538637361
     18.09257000            -0.1220359439
      7.21535200            -0.2580501271
      2.88655900            -0.0960136756
      1.13830700             1.2954415985
      0.43702200             0.1584137251
      0.16175280            -2.0601633088
      0.05986878             1.1734217634
S   13   1.00
  45831.05000000             0.0000606211
   6803.94200000             0.0003845726
   1441.54300000             0.0016084830
    394.11230000             0.0088061139
    128.27310000             0.0203551075
     46.66854000             0.1029219616
     18.09257000             0.1220013888
      7.21535200             0.6393289589
      2.88655900            -0.9645708116
      1.13830700            -1.5227952530
      0.43702200             3.8159407332
      0.16175280            -3.4123373643
      0.05986878             1.3219141999
S   13   1.00
  45831.05000000             0.0000115498
   6803.94200000             0.0000631354
   1441.54300000             0.0003420316
    394.11230000             0.0012837890
    128.27310000             0.0048757713
     46.66854000             0.0118603482
     18.09257000             0.0343819449
      7.21535200             0.0438711175
      2.88655900             0.0671018001
      1.13830700            -0.1998866278
      0.43702200            -0.1016308355
      0.16175280            -0.8034441017
      0.05986878             1.5617621381
P   8   1.00
     87.70229000             0.0397488380
     20.52640000             1.4842179286
      6.32223800            -1.8595124857
      2.25564100             1.4738760649
      0.85611830            -0.9609143327
      0.32715340             0.5524093586
      0.12125640            -0.2819254455
      0.04494256             0.1038243854
P   8   1.00
     87.70229000             0.0023374202
     20.52640000             0.0174254214
      6.32223800             0.0756311285
      2.25564100             0.2223630326
      0.85611830             0.4123022954
      0.32715340             0.3933480030
      0.12125640             0.1103029751
      0.04494256            -0.0028943696
P   8   1.00
     87.70229000            -0.0024114988
     20.52640000            -0.0198750164
      6.32223800            -0.0756566537
      2.25564100            -0.3189047128
      0.85611830            -0.4864584522
      0.32715340             0.3814781701
      0.12125640             0.6824018351
      0.04494256             0.0228726935
P   8   1.00
     87.70229000             0.0051956264
     20.52640000             0.0459023038
      6.32223800             0.1961902769
      2.25564100             0.7873422308
      0.85611830            -0.4759184325
      0.32715340            -0.8958252032
      0.12125640             0.8941010866
      0.04494256             0.1178109640
P   8   1.00
     87.70229000            -0.0227184308
     20.52640000            -0.0449477854
      6.32223800            -1.4023970719
      2.25564100             2.6534983538
      0.85611830            -2.8823830731
      0.32715340             2.3909178800
      0.12125640            -1.6268885209
      0.04494256             0.7421357997
P   8   1.00
     87.70229000            -0.0108956990
     20.52640000            -0.0535112706
      6.32223800            -0.5639495363
      2.25564100            -0.3721573552
      0.85611830             1.7728062266
      0.32715340            -1.8210310509
      0.12125640             0.6280112192
      0.04494256             0.3582749880
P   8   1.00
     87.70229000             0.0098042576
     20.52640000             0.0071258313
      6.32223800             0.6262420682
      2.25564100            -0.6671768712
      0.85611830            -0.1808466787
      0.32715340             1.3147710679
      0.12125640            -2.0746039465
      0.04494256             1.5923985827
D   4   1.00
      2.37607713             0.1730887902
      1.18915725             0.3110481500
      0.54288641             0.5057232195
      0.21898562             0.1875027648
D   4   1.00
      2.37607713            -2.0603406019
      1.18915725             3.4254069610
      0.54288641            -2.4733706391
      0.21898562             0.9290224024
D   4   1.00
      2.37607713            -0.4187720221
      1.18915725            -0.5526252856
      0.54288641             0.3633385217
      0.21898562             0.6445432304
D   4   1.00
      2.37607713             0.6927550947
      1.18915725             0.1745690168
      0.54288641            -1.5399284893
      0.21898562             1.2688683713
F   3   1.00
      1.53069823             0.5422775591
      0.75044444             0.3958890274
      0.32342721             0.2114640343
F   3   1.00
      1.53069823            -1.0122333574
      0.75044444             0.5279848641
      0.32342721             0.6474817744
F   3   1.00
      1.53069823             1.2887799314
      0.75044444            -2.1517195123
      0.32342721             1.3805097351
****
O     0
S   13   1.00
  60090.63000000            -0.0195413375
   9178.64300000             0.1124388889
   1956.07500000            -0.5155668651
    532.33530000             2.7727641684
    172.04650000            -3.7858732346
     62.28191000             3.1656075066
     24.11402000            -2.2039064781
      9.63524800             1.4086720095
      3.86729700            -0.8396476481
      1.52812000             0.4642702812
      0.58555830            -0.2345298949
      0.21504120             0.1027830301
      0.07897200            -0.0299675444
S   13   1.00
  60090.63000000             0.0001692081
   9178.64300000             0.0008891879
   1956.07500000             0.0044485389
    532.33530000             0.0179738557
    172.04650000             0.0600476428
     62.28191000             0.1620707499
     24.11402000             0.3339289709
      9.63524800             0.4092140945
      3.86729700             0.1618795818
      1.52812000             0.0022027536
      0.58555830             0.0034704047
      0.21504120            -0.0012142930
      0.07897200             0.0005534896
S   13   1.00
  60090.63000000             0.0016824261
   9178.64300000            -0.0102558308
   1956.07500000             0.1095002733
    532.33530000            -0.4488321249
    172.04650000             3.1385355360
     62.28191000            -5.2563693877
     24.11402000             4.9314159993
      9.63524800            -3.4506227726
      3.86729700             2.0654871108
      1.52812000            -1.1249012317
      0.58555830             0.5615527166
      0.21504120            -0.2446043966
      0.07897200             0.0711325634
S   13   1.00
  60090.63000000            -0.0002065020
   9178.64300000            -0.0035641933
   1956.07500000             0.0029640655
    532.33530000            -0.1218194024
    172.04650000             0.0735099054
     62.28191000            -2.7197744822
     24.11402000             5.2215840139
      9.63524800            -4.8348223157
      3.86729700             3.1687265830
      1.52812000            -1.7533842622
      0.58555830             0.8740236986
      0.21504120            -0.3802947001
      0.07897200             0.1105304790
S   13   1.00
  60090.63000000             0.0002419867
   9178.64300000             0.0000566806
   1956.07500000             0.0108054863
    532.33530000            -0.0172571578
    172.04650000             0.2416080740
     62.28191000            -0.3596654472
     24.11402000             3.0148695731
      9.63524800            -6.0524851282
      3.86729700             5.9236855025
      1.52812000            -3.9750352666
      0.58555830             2.1515882879
      0.21504120            -0.9647815655
      0.07897200             0.2822880591
S   13   1.00
  60090.63000000            -0.0000395897
   9178.64300000            -0.0002084833
   1956.07500000            -0.0010430918
    532.33530000            -0.0042636830
    172.04650000            -0.0144962724
     62.28191000            -0.0416420553
     24.11402000            -0.0970746371
      9.63524800            -0.1700226740
      3.86729700            -0.1020310048
      1.52812000             0.2917777597
      0.58555830             0.6302910866
      0.21504120             0.2386680568
      0.07897200             0.0075406479
S   13   1.00
  60090.63000000            -0.0000773803
   9178.64300000            -0.0005818941
   1956.07500000            -0.0014078771
    532.33530000            -0.0149554973
    172.04650000            -0.0096707840
     62.28191000            -0.2062919652
     24.11402000             0.0042110667
      9.63524800            -1.6043085938
      3.86729700             4.9112426184
      1.52812000            -6.1877669361
      0.58555830             4.9226183362
      0.21504120            -2.7759393511
      0.07897200             0.8984356654
S   13   1.00
  60090.63000000            -0.0000493138
   9178.64300000            -0.0002616399
   1956.07500000            -0.0012940482
    532.33530000            -0.0053976104
    172.04650000            -0.0180551425
     62.28191000            -0.0546545545
     24.11402000            -0.1253836904
      9.63524800            -0.2655132982
      3.86729700            -0.0863057573
      1.52812000             1.3025724632
      0.58555830             0.1258597737
      0.21504120            -2.0057236989
      0.07897200             1.1372529664
S   13   1.00
  60090.63000000             0.0000652206
   9178.64300000             0.0003851097
   1956.07500000             0.0015725997
    532.33530000             0.0086283101
    172.04650000             0.0199439496
     62.28191000             0.1017080665
     24.11402000             0.1231693298
      9.63524800             0.6571302334
      3.86729700            -1.0140167663
      1.52812000            -1.4456106903
      0.58555830             3.7310933587
      0.21504120            -3.3439638439
      0.07897200             1.2929116266
S   13   1.00
  60090.63000000             0.0000125071
   9178.64300000             0.0000635004
   1956.07500000             0.0003382904
    532.33530000             0.0012608655
    172.04650000             0.0048739193
     62.28191000             0.0117999479
     24.11402000             0.0350558932
      9.63524800             0.0431547110
      3.86729700             0.0686575271
      1.52812000            -0.2069936760
      0.58555830            -0.0765718142
      0.21504120            -0.8292339701
      0.07897200             1.5687412119
P   8   1.00
    113.11180000            -1.2710682785
     26.41491000             1.0910020651
      8.17643800            -0.7705377467
      2.92841600             0.5099230624
      1.10453300            -0.3033330829
      0.41297850             0.1584074733
      0.14779610            -0.0717784623
      0.05289305             0.0231677216
P   8   1.00
    113.11180000             0.0254977556
     26.41491000            -1.5479139269
      8.17643800             1.8898556729
      2.92841600            -1.4464555291
      1.10453300             0.8870093109
      0.41297850            -0.4705523458
      0.14779610             0.2218889459
      0.05289305            -0.0770360461
P   8   1.00
    113.11180000             0.0025494846
     26.41491000             0.0190898373
      8.17643800             0.0827611559
      2.92841600             0.2348713494
      1.10453300             0.4160688706
      0.41297850             0.3827214973
      0.14779610             0.1043982782
      0.05289305            -0.0015088188
P   8   1.00
    113.11180000            -0.0026630700
     26.41491000            -0.0212035935
      8.17643800            -0.0872809032
      2.92841600            -0.3241830901
      1.10453300            -0.4488528421
      0.41297850             0.3930914267
      0.14779610             0.6675097555
      0.05289305             0.0238835115
P   8   1.00
    113.11180000            -0.0238049270
     26.41491000            -0.0185497260
      8.17643800            -1.4523692173
      2.92841600             2.6627270901
      1.10453300            -2.7548641088
      0.41297850             2.1599393727
      0.14779610            -1.4222072851
      0.05289305             0.6547424457
P   8   1.00
    113.11180000             0.0053232057
     26.41491000             0.0462694043
      8.17643800             0.2064478125
      2.92841600             0.7461414937
      1.10453300            -0.4557194537
      0.41297850            -0.8913484286
      0.14779610             0.9101315452
      0.05289305             0.0976906024
P   8   1.00
    113.11180000            -0.0112898559
     26.41491000            -0.0560743425
      8.17643800            -0.5679396015
      2.92841600            -0.3559825914
      1.10453300             1.7438247134
      0.41297850            -1.7932938169
      0.14779610             0.6661116827
      0.05289305             0.2973418495
P   8   1.00
    113.11180000             0.0095798026
     26.41491000             0.0116605639
      8.17643800             0.5564970289
      2.92841600            -0.5894713168
      1.10453300            -0.1801383049
      0.41297850             1.2013211517
      0.14779610            -1.9369305772
      0.05289305             1.5589788649
D   4   1.00
      2.91881374             0.2189008976
      1.47086227             0.3084606274
      0.67466607             0.4968855570
      0.27128932             0.1543978747
D   4   1.00
      2.91881374            -0.5840117450
      1.47086227            -0.3749425939
      0.67466607             0.4232434086
      0.27128932             0.5661997036
D   4   1.00
      2.91881374            -1.9148526647
      1.47086227             3.4686455436
      0.67466607            -2.7388636396
      0.27128932             1.1211849019
D   4   1.00
      2.91881374             1.0008481630
      1.47086227            -0.4995933023
      0.67466607            -1.0328708731
      0.27128932             1.1470255900
F   3   1.00
      2.21897757             0.4559426055
      1.07062169             0.4472676941
      0.43980442             0.2648932271
F   3   1.00
      2.21897757            -0.9647857915
      1.07062169             0.3751836722
      0.43980442             0.6946471172
F   3   1.00
      2.21897757             1.2881000474
      1.07062169            -2.0410903807
      0.43980442             1.2613220749
****
$end

--------------------------------------------------------------
 ----------------------------------------------------------------
             Standard Nuclear Orientation (Angstroms)
    I     Atom           X                Y                Z
 ----------------------------------------------------------------
    1      N      -0.0000000000     0.0000000000     0.3240267236
    2      O      -1.1048267521    -0.0000000000    -0.1417616916
    3      O       1.1048267521     0.0000000000    -0.1417616916
 ----------------------------------------------------------------
 Molecular Point Group                 C2v   NOp =  4
 Largest Abelian Subgroup              C2v   NOp =  4
 Nuclear Repulsion Energy =          64.75805752 hartrees
 There are       12 alpha and       11 beta electrons
 Requested basis set is non-standard
 There are 74 shells and 222 basis functions

 Q-Chem warning in module libmdc/get_mega.C, line 167:

 Allowed MEM_STATIC has been capped at MEM_STATIC=8191.
 Reduce the value of MEM_STATIC to silence this warning.


 Total QAlloc Memory Limit  60000 MB
 Mega-Array Size      8007 MB
 MEM_STATIC part      8191 MB


                       Distance Matrix (Angstroms)
             N (  1)   O (  2)
   O (  2)  1.199000
   O (  3)  1.199000  2.209654
 
 A cutoff of  1.0D-12 yielded   2775 shell pairs
 There are     25131 function pairs (     34845 Cartesian)
 Smallest overlap matrix eigenvalue = 3.87E-05

 Scale SEOQF with 1.000000e-01/1.000000e-01/1.000000e-01

 Standard Electronic Orientation quadrupole field applied
 Nucleus-field energy     =     0.0000000006 hartrees
 ================ Generating on-the-fly SAD Guess ================
 Attempting to make child job directory: ./qchem63162//Frg1/
 Attempting to make child job directory: ./qchem63162//Frg2/
 Creating input file ./qchem63162/Frg1.input
 using default PutDataFrgm: nothing
 calling putenv with: QCSCRATCH=./qchem63162/ 
 Spawning Job For Fragment 0
 Done Job For Fragment 0
 calling putenv with: QCSCRATCH=. 
 calling putenv with: QCTHREADS=1 
 Creating input file ./qchem63162/Frg2.input
 using default PutDataFrgm: nothing
 calling putenv with: QCSCRATCH=./qchem63162/ 
 Spawning Job For Fragment 1
 Done Job For Fragment 1
 calling putenv with: QCSCRATCH=. 
 calling putenv with: QCTHREADS=1 
 Time for running child jobs:  CPU 0.02 s  wall 1403.84 s
 ============= Method Specific SAD Guess Constructed =============
 Guess from on-the-fly superposition of atomic densities
 Warning: Energy on first SCF cycle will be non-variational

 -----------------------------------------------------------------------
  General SCF calculation program by
  Eric Jon Sundstrom, Paul Horn, Yuezhi Mao, Dmitri Zuev, Alec White,
  David Stuck, Shaama M.S., Shane Yost, Joonho Lee, David Small,
  Daniel Levine, Susi Lehtola, Hugh Burton, Evgeny Epifanovsky,
  Bang C. Huynh
 -----------------------------------------------------------------------
 Hartree-Fock
 Orthonormalizing orbitals
 A restricted open-shell SCF calculation will be
 performed using GDM
 SCF converges when RMS gradient is below 1.0e-08
 ---------------------------------------
  Cycle       Energy        RMS Gradient
 ---------------------------------------
    1    -203.2561056765      6.62e-01   Descent step
    2    -203.7057041134      3.28e-01   Descent step
    3    -203.9641253050      1.26e-01   Descent step
    4    -204.0818056773      4.35e-02   Normal BFGS step
    5    -204.1074220590      1.19e-02   Normal BFGS step
    6    -204.1082054742      8.91e-03   Normal BFGS step
    7    -204.1083296872      3.88e-03   Normal BFGS step
    8    -204.1083525301      1.22e-03   Normal BFGS step
    9    -204.1083576875      8.02e-04   Normal BFGS step
   10    -204.1083587640      3.01e-04   Normal BFGS step
   11    -204.1083589964      9.52e-05   Normal BFGS step
   12    -204.1083590336      6.35e-05   Normal BFGS step
   13    -204.1083590380      2.15e-05   Normal BFGS step
   14    -204.1083590383      3.58e-06   Normal BFGS step
   15    -204.1083590383      1.68e-06   Normal BFGS step
   16    -204.1083590383      2.65e-07   Normal BFGS step
   17    -204.1083590383      6.05e-08   Normal BFGS step
   18    -204.1083590384      8.80e-09  Convergence criterion met
The disked orbital energies are calculated using alpha and beta Focks
 ---------------------------------------
 Alpha HF Exchange    Energy = -11.79492171079289
 Beta HF Exchange     Energy = -11.08809877140442
 Nuclear Attraction   Energy =   0.00000000000000
 One-Electron (alpha) Energy = -209.42131456073469
 One-Electron (beta)  Energy = -198.45800543231621
 Total Coulomb        Energy = 161.89592391521450
 Final Alpha MO Eigenvalues
            1           2           3           4           5           6
    1 -20.6847483 -20.6846999 -15.8848394  -1.6729177  -1.4939862  -0.9501285
            7           8           9          10          11          12
    1  -0.7984896  -0.8301352  -0.7639278  -0.5932672  -0.5331176  -0.5088777
           13          14          15          16          17          18
    1   0.0652495   0.0755496   0.0916859   0.0943402   0.0998843   0.1532836
           19          20          21          22          23          24
    1   0.1566631   0.1587408   0.1791981   0.1828282   0.2065136   0.3226288
           25          26          27          28          29          30
    1   0.3233200   0.4080527   0.4471358   0.4501552   0.4941273   0.5561344
           31          32          33          34          35          36
    1   0.5520153   0.5589293   0.5813574   0.5881772   0.6165048   0.6230750
           37          38          39          40          41          42
    1   0.6352111   0.7521343   0.7714967   0.8383239   0.8418455   0.9212583
           43          44          45          46          47          48
    1   0.9239725   0.9706420   1.0523105   1.0731779   1.1068547   1.1376031
           49          50          51          52          53          54
    1   1.1565067   1.1875428   1.2202303   1.3010607   1.3338330   1.3472273
           55          56          57          58          59          60
    1   1.4533976   1.4999456   1.5031153   1.5277970   1.5392264   1.5437690
           61          62          63          64          65          66
    1   1.6790184   1.6823459   1.7011216   1.7695741   1.8580880   1.8611202
           67          68          69          70          71          72
    1   1.8618507   1.8793957   1.8822252   1.9396307   2.0170233   2.1318326
           73          74          75          76          77          78
    1   2.1832325   2.2058058   2.2087531   2.3025871   2.3121458   2.3147651
           79          80          81          82          83          84
    1   2.3305667   2.3617373   2.3985755   2.4333964   2.4656519   2.5194309
           85          86          87          88          89          90
    1   2.5301080   2.6462233   2.6844944   2.6951510   2.7359831   2.7647261
           91          92          93          94          95          96
    1   2.8345863   2.8824242   2.9363580   3.1384524   3.2170195   3.3411295
           97          98          99         100         101         102
    1   3.3582531   3.4243383   3.4658994   3.4746390   3.6320476   3.7507731
          103         104         105         106         107         108
    1   3.8761950   3.9210371   4.2385604   4.3222436   4.4032269   4.4072796
          109         110         111         112         113         114
    1   4.4750425   4.5461621   4.5908785   4.9476218   4.9553779   4.9824904
          115         116         117         118         119         120
    1   5.0102161   5.0148592   5.0959648   5.1686595   5.3815313   5.4039394
          121         122         123         124         125         126
    1   5.4134277   5.4421413   5.4797060   5.6456393   5.6699091   5.7038664
          127         128         129         130         131         132
    1   5.7455665   5.7772905   5.7783819   5.7992392   5.8508594   5.8678692
          133         134         135         136         137         138
    1   6.1294563   6.1649693   6.2564687   6.2891018   6.3243718   6.3974746
          139         140         141         142         143         144
    1   6.4427144   6.7454472   6.7742830   7.0634706   7.0957430   7.1963577
          145         146         147         148         149         150
    1   7.4411434   7.9572561   8.0636609   8.1093225   8.1437273   8.3605652
          151         152         153         154         155         156
    1   8.5450713   8.5633982   9.2582513   9.4696361  10.3476823  10.4005263
          157         158         159         160         161         162
    1  10.7225894  11.0229855  11.1453115  11.5634992  11.6969022  11.6986884
          163         164         165         166         167         168
    1  11.6999222  11.7141034  11.8800061  11.9496890  12.0087067  12.0113269
          169         170         171         172         173         174
    1  12.0165493  12.0449921  12.0943580  12.1635006  12.2410561  12.5410388
          175         176         177         178         179         180
    1  12.7584636  12.7741883  12.7778006  12.8066545  13.2286298  13.2369727
          181         182         183         184         185         186
    1  13.3400749  13.3907017  13.5160432  13.8452795  15.5010441  15.7593540
          187         188         189         190         191         192
    1  15.7766241  16.6556370  17.4922246  20.3197115  20.3603825  20.4492263
          193         194         195         196         197         198
    1  20.5806919  21.5127284  21.6851217  35.0808577  46.2364594  46.5870007
          199         200         201         202         203         204
    1  54.2959429  54.8697640  55.5206344  68.4949820  68.5413540  68.6154290
          205         206         207         208         209         210
    1  68.7000475  69.3408467  69.4939528 105.3001455 139.9876437 140.3318915
          211         212         213         214         215         216
    1 294.6462756 294.6809853 294.7305335 294.7859125 295.2297957 295.3416491
          217         218         219         220         221         222
    1 316.3537921 422.9364833 423.27153071012.79565441410.46100801410.8840941
 Final Beta MO Eigenvalues
            1           2           3           4           5           6
    1 -20.6747852 -20.6747092 -15.8637133  -1.6346427  -1.4575576  -0.8893799
            7           8           9          10          11          12
    1  -0.7562876  -0.7217331  -0.7482054  -0.5100074  -0.5233565   0.0330093
           13          14          15          16          17          18
    1   0.0901363   0.0798206   0.0924938   0.0963195   0.1004563   0.1543763
           19          20          21          22          23          24
    1   0.1593626   0.1589651   0.1809494   0.1854381   0.2068129   0.3252635
           25          26          27          28          29          30
    1   0.3283628   0.4210408   0.4508991   0.4716141   0.5025940   0.5576532
           31          32          33          34          35          36
    1   0.5702726   0.5674673   0.5871033   0.5952463   0.6222478   0.6324636
           37          38          39          40          41          42
    1   0.6376290   0.7563787   0.8161584   0.8438532   0.8527465   0.9311895
           43          44          45          46          47          48
    1   0.9336450   0.9730258   1.0650883   1.0817673   1.1336557   1.1415948
           49          50          51          52          53          54
    1   1.1639135   1.1947739   1.2242578   1.3093097   1.3370665   1.3610682
           55          56          57          58          59          60
    1   1.4562694   1.5071361   1.5090397   1.5402089   1.5429106   1.5491923
           61          62          63          64          65          66
    1   1.6887080   1.7037094   1.7211831   1.7750571   1.8644276   1.8718233
           67          68          69          70          71          72
    1   1.8750376   1.8827116   1.8853694   1.9664311   2.0311223   2.1360457
           73          74          75          76          77          78
    1   2.1908095   2.2191279   2.2175724   2.3117589   2.3191396   2.3204839
           79          80          81          82          83          84
    1   2.3346029   2.3714859   2.4045103   2.4579121   2.4705009   2.5250423
           85          86          87          88          89          90
    1   2.5500973   2.6559847   2.6943982   2.7043573   2.7496811   2.7724884
           91          92          93          94          95          96
    1   2.8400380   2.9004194   2.9437461   3.1528992   3.2207824   3.3511819
           97          98          99         100         101         102
    1   3.3645145   3.4507911   3.4805391   3.4881735   3.6390570   3.7726628
          103         104         105         106         107         108
    1   3.8873878   3.9252241   4.2529251   4.3511486   4.4140684   4.4307107
          109         110         111         112         113         114
    1   4.4957575   4.5518306   4.6024189   4.9561412   4.9642900   4.9880888
          115         116         117         118         119         120
    1   5.0185965   5.0246475   5.1146927   5.1953042   5.3933184   5.4143602
          121         122         123         124         125         126
    1   5.4202260   5.4516228   5.4886817   5.6565143   5.6792964   5.7188749
          127         128         129         130         131         132
    1   5.7602351   5.7885239   5.7893144   5.8131218   5.8569269   5.8823522
          133         134         135         136         137         138
    1   6.1459574   6.1702196   6.2614369   6.3036294   6.3374695   6.4115152
          139         140         141         142         143         144
    1   6.4534807   6.7535142   6.7843659   7.0676843   7.1013190   7.2122181
          145         146         147         148         149         150
    1   7.4561411   7.9767775   8.0699407   8.1326000   8.1690289   8.3746309
          151         152         153         154         155         156
    1   8.5524138   8.5804572   9.2674465   9.4849425  10.3725988  10.4270599
          157         158         159         160         161         162
    1  10.7292004  11.0425664  11.1643975  11.5741242  11.7050870  11.7086231
          163         164         165         166         167         168
    1  11.7080394  11.7239346  11.8911544  11.9596440  12.0197013  12.0164326
          169         170         171         172         173         174
    1  12.0223893  12.0530031  12.1066427  12.1732455  12.2507170  12.5512531
          175         176         177         178         179         180
    1  12.7693005  12.7852768  12.7888371  12.8188924  13.2345971  13.2427889
          181         182         183         184         185         186
    1  13.3521499  13.4055851  13.5239834  13.8543132  15.5095545  15.7673410
          187         188         189         190         191         192
    1  15.7839085  16.6797060  17.4984988  20.3231639  20.3636558  20.4621009
          193         194         195         196         197         198
    1  20.5933158  21.5193662  21.6916178  35.0906017  46.2407871  46.5912763
          199         200         201         202         203         204
    1  54.3004219  54.8816998  55.5249810  68.4965934  68.5429688  68.6208761
          205         206         207         208         209         210
    1  68.7054805  69.3437286  69.4968145 105.3050011 139.9894058 140.3336428
          211         212         213         214         215         216
    1 294.6467832 294.6814925 294.7318560 294.7872309 295.2305804 295.3424275
          217         218         219         220         221         222
    1 316.3563044 422.9371096 423.27215481012.79691981410.46123151410.8843169
 SCF time:   CPU 34595.95s  wall 34604.00s 
<S^2> =          0.750000000
 SCF   energy in the final basis set =     -204.1083590384
 Total energy in the final basis set =     -204.1083590384
Setting RAS_srDFT_COR/EXC
  
     ##========================================##
     ||                                        ||
     ||              R A S M A N 2             ||
     ||________________________________________||
     ||                                        ||
     ||  Author:                               ||
     ||                                        ||
     ||        David Casanova (2010)           ||
     ||                                        ||
     ##========================================##
  
  ***************************************************
  *  RAS-CI Dimensions:                             *
  *                                                 *
  *  Active Elec.:  11 ( 6, 5)   Active Orb.:   9   *
  *  Doubly Occ. :   6           Doubly Vir.: 207   *
  *  Frozen Occ. :   0           Frozen Vir.:   0   *
  *                                                 *
  *  Total CI configurations:   5557356             * 
  *    Active configurations:     10584             * 
  *      Hole configurations:     69552             * 
  *  Particle configurations:   5477220             * 
  *                                                 *
  *   Requested states:       10                    *
  *  Spin multiplicity: Any multiplicity            *
  *                                                 *
  ***************************************************
-----------------------------------------
    Memory requirements of RASCI

 Each CI-vector requires     42.40 MiB 
 Max. subspace vectors           1000      

 Reduced Lists                0.00 MiB 
 Excitation Lists             0.01 MiB 
 Excitation Lists Sign        0.01 MiB 
 CI-space (Max)           42830.89 MiB 
 Integrals                   71.08 MiB 
 Memory required (Max)    42830.91 MiB 
 Memory available          7811.55 MiB 

 Q-Chem warning in module rasman2/ras_mem_check.C, line 162:

 Static memory may be insufficient to store the subspace vectors


    Disk requirements of RASCI

 Fock matrix                  0.75 MiB 
 2-electron integrals       110.01 MiB 
 CI-space                 84798.52 MiB 
 Disk required            84909.29 MiB 
-----------------------------------------
  
RAS1 HF-like energy:           -172.8721062555
 Computing integrals
 Computing J and K matrices
 Computing addressing
 Making amplitude guesses
 
Direct CI diagonalization
 ---------------------------------------------------
 Iter    Rts Conv    Rts Left    Ttl Dev     Max Dev
 ---------------------------------------------------
   1         0          10      0.002493    0.000290
   2         0          10      0.001587    0.000183
   3         0          10      0.001199    0.000145
   4         0          10      0.001306    0.000154
   5         0          10      0.001283    0.000160
   6         0          10      0.001143    0.000153
   7         0          10      0.001678    0.000225
   8         0          10      0.001347    0.000216
   9         0          10      0.001242    0.000204
  10         0          10      0.001357    0.000254
  11         0          10      0.001896    0.000666
  12         0          10      0.001268    0.000319
  13         0          10      0.001163    0.000235
  14         0          10      0.001011    0.000229
  15         0          10      0.000786    0.000244
  16         0          10      0.000952    0.000395
  17         0          10      0.001055    0.000472
  18         0          10      0.000980    0.000441
  19         0          10      0.000711    0.000353
  20         0          10      0.000629    0.000311
  21         0          10      0.000565    0.000277
  22         1           9      0.000651    0.000313
  23         1           9      0.000620    0.000303
  24         1           9      0.000507    0.000248
  25         1           9      0.000278    0.000128
  26         1           9      0.000226    0.000091
  27         1           9      0.000230    0.000097
  28         2           8      0.000179    0.000065
  29         2           8      0.000399    0.000285
  30         2           8      0.000272    0.000195
  31         4           6      0.000245    0.000158
  32         4           6      0.000199    0.000125
  33         4           6      0.000249    0.000174
  34         4           6      0.000228    0.000134
  35         5           5      0.000180    0.000114
  36         5           5      0.000167    0.000119
  37         5           5      0.000140    0.000099
  38         5           5      0.000184    0.000092
  39         6           4      0.000160    0.000089
  40         6           4      0.000166    0.000101
  41         6           4      0.000179    0.000119
  42         6           4      0.000171    0.000117
  43         6           4      0.000189    0.000134
  44         6           4      0.000174    0.000114
  45         7           3      0.000219    0.000153
  46         7           3      0.000259    0.000200
  47         6           4      0.000568    0.000334
  48         6           4      0.000431    0.000227
  49         6           4      0.000337    0.000158
  50         7           3      0.000387    0.000177
  51         7           3      0.000379    0.000165
  52         7           3      0.000369    0.000166
  53         8           2      0.000258    0.000110
  54         8           2      0.000207    0.000081
  55         8           2      0.000166    0.000056
  56         8           2      0.000161    0.000053
  57         7           3      0.000157    0.000052
  58         8           2      0.000129    0.000052
  59         8           2      0.000108    0.000038
  60         8           2      0.000112    0.000035
  61         8           2      0.000118    0.000041
  62         7           3      0.000114    0.000042
  63         8           2      0.000108    0.000035
  64         8           2      0.000084    0.000033
  65         8           2      0.000074    0.000032
  66         8           2      0.000065    0.000031
  67         8           2      0.000074    0.000033
  68         8           2      0.000074    0.000035
  69         8           2      0.000061    0.000034
  70         8           2      0.000051    0.000027
  71         8           2      0.000046    0.000023
  72         8           2      0.000045    0.000021
  73         8           2      0.000035    0.000016
  74         8           2      0.000029    0.000012
  75         8           2      0.000025    0.000011
  76         8           2      0.000024    0.000010
  77         8           2      0.000023    0.000009
  78         8           2      0.000023    0.000009
  79         8           2      0.000020    0.000008
  80         8           2      0.000018    0.000006
  81         8           2      0.000017    0.000005
  82         8           2      0.000017    0.000005
  83         9           1      0.000015    0.000003
  84         9           1      0.000014    0.000003
  85         9           1      0.000013    0.000003
  86        10           0      0.000013    0.000003    Roots Converged
 ---------------------------------------------------
   
**************************************************
 RAS-CI total energy for state   1:   -204.266804436499
  Excitation energy (eV) =  0.000000000000
  State symmetry: A1    (C2v      )
  <S^2>      :  0.7500
  Dipole Moment:   -0.0000 X    -0.0000 Y    -0.1041 Z
 NATURAL OCCUPATION NUMBERS (higher than 1.0E-05)
            1           2           3           4           5           6
    1   2.0000000   1.9999999   1.9999998   1.9999051   1.9997526   1.9985537
            7           8           9          10          11          12
    1   1.9843841   1.9789226   1.9628049   1.9575703   1.9245315   1.0366650
           13          14          15          16          17          18
    1   0.1062578   0.0133744   0.0099711   0.0049439   0.0040785   0.0038524
           19          20          21          22          23          24
    1   0.0031219   0.0030936   0.0018364   0.0008151   0.0007682   0.0006634
           25          26          27          28          29          30
    1   0.0005009   0.0004751   0.0004664   0.0003571   0.0002943   0.0002452
           31          32          33          34          35          36
    1   0.0002127   0.0001835   0.0001606   0.0001540   0.0001263   0.0001114
           37          38          39          40          41          42
    1   0.0000784   0.0000631   0.0000625   0.0000617   0.0000611   0.0000565
           43          44          45          46          47          48
    1   0.0000549   0.0000485   0.0000483   0.0000400   0.0000211   0.0000206
           49          50          51          52          53          54
    1   0.0000201   0.0000168   0.0000165   0.0000126   0.0000124   0.0000123
           55          56          57
    1   0.0000118   0.0000112   0.0000102
Natural Orbitals stored in FCHK

  Amplitudes : 
  
 | HOLE  | ALPHA     | BETA      | PART  |    AMPLITUDE 
--------------------------------------------------
 |       | 111111000 | 111110000 |       |     9.3893666063230E-01
 |       | 111101100 | 111100100 |       |     1.1009983253510E-01
--------------------------------------------------
*** Contributions RASCI wfn    Active:  94.04
                                 Hole:   0.25
                                 Part:   5.71

      Mulliken population analysis 
 ---------------------------------------------------
   Atom    Charge (a.u.)   Spin (a.u.)  
 ---------------------------------------------------
   1  N    0.383020        0.515568 
   2  O   -0.191510        0.242216 
   3  O   -0.191510        0.242216 
 ---------------------------------------------------
   Sum:    0.000000        1.000000 
 ---------------------------------------------------
 
  
 NATURAL OCCUPATION NUMBERS (higher than 1.0E-05)
            1           2           3           4           5           6
    1   2.0000000   1.9999999   1.9999998   1.9999051   1.9997526   1.9985537
            7           8           9          10          11          12
    1   1.9843841   1.9789226   1.9628049   1.9575703   1.9245315   1.0366650
           13          14          15          16          17          18
    1   0.1062578   0.0133744   0.0099711   0.0049439   0.0040785   0.0038524
           19          20          21          22          23          24
    1   0.0031219   0.0030936   0.0018364   0.0008151   0.0007682   0.0006634
           25          26          27          28          29          30
    1   0.0005009   0.0004751   0.0004664   0.0003571   0.0002943   0.0002452
           31          32          33          34          35          36
    1   0.0002127   0.0001835   0.0001606   0.0001540   0.0001263   0.0001114
           37          38          39          40          41          42
    1   0.0000784   0.0000631   0.0000625   0.0000617   0.0000611   0.0000565
           43          44          45          46          47          48
    1   0.0000549   0.0000485   0.0000483   0.0000400   0.0000211   0.0000206
           49          50          51          52          53          54
    1   0.0000201   0.0000168   0.0000165   0.0000126   0.0000124   0.0000123
           55          56          57
    1   0.0000118   0.0000112   0.0000102
  
*** Unpaired Electrons
 Yamaguchi Nd:         1.68
 Head-Gordon Nu:       1.31
 Head-Gordon Nu_nl:    1.08
  
**************************************************
 RAS-CI total energy for state   2:   -204.158467639224
  Excitation energy (eV) =  2.947994243101
  State symmetry: B2    (C2v      )
  <S^2>      :  0.7500
  Dipole Moment:   -0.0000 X    -0.0000 Y    -0.1358 Z
  Trans. Moment:    0.0000 X     0.0372 Y    -0.0000 Z
  Strength   :  0.000100
  Natural transition orbitals ( 1 -> 2 ):
   e-/hole pair  1 alpha:  ampl =  0.918358 ( 84.3%)   [9 : 10]
   e-/hole pair  2 alpha:  ampl =  0.057432 (  0.3%)   [8 : 11]
   e-/hole pair  1 beta :  ampl =  0.049671 (  0.2%)   [9 : 10]
   e-/hole pair  2 beta :  ampl =  0.039753 (  0.2%)   [8 : 11]
   Sum of square amplitudes: 0.85

 NATURAL OCCUPATION NUMBERS (higher than 1.0E-05)
            1           2           3           4           5           6
    1   2.0000000   1.9999999   1.9999998   1.9998856   1.9997335   1.9971021
            7           8           9          10          11          12
    1   1.9846103   1.9820689   1.9658101   1.9513337   1.8802275   1.0283244
           13          14          15          16          17          18
    1   0.1673065   0.0093617   0.0063871   0.0056266   0.0048166   0.0047784
           19          20          21          22          23          24
    1   0.0030085   0.0028147   0.0010566   0.0006432   0.0005990   0.0005218
           25          26          27          28          29          30
    1   0.0004798   0.0004493   0.0004257   0.0003545   0.0002616   0.0002572
           31          32          33          34          35          36
    1   0.0001801   0.0001647   0.0001421   0.0001322   0.0001276   0.0001121
           37          38          39          40          41          42
    1   0.0000882   0.0000840   0.0000709   0.0000660   0.0000627   0.0000627
           43          44          45          46          47          48
    1   0.0000546   0.0000515   0.0000369   0.0000355   0.0000352   0.0000272
           49          50          51          52          53          54
    1   0.0000161   0.0000156   0.0000151   0.0000141   0.0000139   0.0000124
           55
    1   0.0000121
Natural Orbitals stored in FCHK

  Amplitudes : 
  
 | HOLE  | ALPHA     | BETA      | PART  |    AMPLITUDE 
--------------------------------------------------
 |       | 111110100 | 111110000 |       |     8.9565258927955E-01
 |       | 111110100 | 101111000 |       |    -1.1462925369768E-01
 |       | 111011100 | 111011000 |       |    -1.6672517022504E-01
 |       | 101111100 | 111110000 |       |    -1.5598949054312E-01
 |       | 111110000 | 111110000 |  22   |    -1.6345752023872E-01
--------------------------------------------------
*** Contributions RASCI wfn    Active:  90.27
                                 Hole:   0.85
                                 Part:   8.88

      Mulliken population analysis 
 ---------------------------------------------------
   Atom    Charge (a.u.)   Spin (a.u.)  
 ---------------------------------------------------
   1  N    0.455233        0.591194 
   2  O   -0.227617        0.204403 
   3  O   -0.227617        0.204403 
 ---------------------------------------------------
   Sum:    0.000000        1.000000 
 ---------------------------------------------------
 
  
 NATURAL OCCUPATION NUMBERS (higher than 1.0E-05)
            1           2           3           4           5           6
    1   2.0000000   1.9999999   1.9999998   1.9998856   1.9997335   1.9971021
            7           8           9          10          11          12
    1   1.9846103   1.9820689   1.9658101   1.9513337   1.8802275   1.0283244
           13          14          15          16          17          18
    1   0.1673065   0.0093617   0.0063871   0.0056266   0.0048166   0.0047784
           19          20          21          22          23          24
    1   0.0030085   0.0028147   0.0010566   0.0006432   0.0005990   0.0005218
           25          26          27          28          29          30
    1   0.0004798   0.0004493   0.0004257   0.0003545   0.0002616   0.0002572
           31          32          33          34          35          36
    1   0.0001801   0.0001647   0.0001421   0.0001322   0.0001276   0.0001121
           37          38          39          40          41          42
    1   0.0000882   0.0000840   0.0000709   0.0000660   0.0000627   0.0000627
           43          44          45          46          47          48
    1   0.0000546   0.0000515   0.0000369   0.0000355   0.0000352   0.0000272
           49          50          51          52          53          54
    1   0.0000161   0.0000156   0.0000151   0.0000141   0.0000139   0.0000124
           55
    1   0.0000121
  
*** Unpaired Electrons
 Yamaguchi Nd:         1.85
 Head-Gordon Nu:       1.42
 Head-Gordon Nu_nl:    1.16
  
**************************************************
 RAS-CI total energy for state   3:   -204.144932449913
  Excitation energy (eV) =  3.316305483349
  State symmetry: B1    (C2v      )
  <S^2>      :  0.7500
  Dipole Moment:    0.0000 X    -0.0000 Y     0.1210 Z
  Trans. Moment:   -0.2887 X    -0.0000 Y     0.0000 Z
  Strength   :  0.006773
  Natural transition orbitals ( 1 -> 3 ):
   e-/hole pair  1 alpha:  ampl =  0.217799 (  4.7%)   [9 : 10]
   e-/hole pair  2 alpha:  ampl =  0.077312 (  0.6%)   [8 : 11]
   e-/hole pair  1 beta :  ampl =  0.888994 ( 79.0%)   [9 : 10]
   e-/hole pair  2 beta :  ampl =  0.125815 (  1.6%)   [8 : 11]
   Sum of square amplitudes: 0.88

 NATURAL OCCUPATION NUMBERS (higher than 1.0E-05)
            1           2           3           4           5           6
    1   2.0000000   2.0000000   1.9999999   1.9998945   1.9998736   1.9993749
            7           8           9          10          11          12
    1   1.9881742   1.9739530   1.9650190   1.8700406   1.8505434   1.1221937
           13          14          15          16          17          18
    1   0.1776519   0.0134693   0.0116898   0.0057617   0.0044349   0.0040841
           19          20          21          22          23          24
    1   0.0023395   0.0020513   0.0015868   0.0012477   0.0007723   0.0006954
           25          26          27          28          29          30
    1   0.0006796   0.0006349   0.0005240   0.0003487   0.0003232   0.0003071
           31          32          33          34          35          36
    1   0.0002459   0.0002276   0.0002082   0.0001972   0.0001419   0.0001318
           37          38          39          40          41          42
    1   0.0001121   0.0001026   0.0000967   0.0000879   0.0000799   0.0000756
           43          44          45          46          47          48
    1   0.0000750   0.0000721   0.0000684   0.0000507   0.0000370   0.0000324
           49          50          51          52          53          54
    1   0.0000302   0.0000227   0.0000215   0.0000171   0.0000163   0.0000163
           55          56          57          58
    1   0.0000135   0.0000131   0.0000118   0.0000113
Natural Orbitals stored in FCHK

  Amplitudes : 
  
 | HOLE  | ALPHA     | BETA      | PART  |    AMPLITUDE 
--------------------------------------------------
 |       | 111111000 | 111100100 |       |     1.2726258258671E-01
 |       | 111111000 | 111011000 |       |     8.8896507594312E-01
 |       | 111101100 | 111110000 |       |    -2.1465540164668E-01
--------------------------------------------------
*** Contributions RASCI wfn    Active:  91.73
                                 Hole:   0.17
                                 Part:   8.10

      Mulliken population analysis 
 ---------------------------------------------------
   Atom    Charge (a.u.)   Spin (a.u.)  
 ---------------------------------------------------
   1  N    0.040221        0.005341 
   2  O   -0.020111        0.497329 
   3  O   -0.020111        0.497329 
 ---------------------------------------------------
   Sum:    0.000000        1.000000 
 ---------------------------------------------------
 
  
 NATURAL OCCUPATION NUMBERS (higher than 1.0E-05)
            1           2           3           4           5           6
    1   2.0000000   2.0000000   1.9999999   1.9998945   1.9998736   1.9993749
            7           8           9          10          11          12
    1   1.9881742   1.9739530   1.9650190   1.8700406   1.8505434   1.1221937
           13          14          15          16          17          18
    1   0.1776519   0.0134693   0.0116898   0.0057617   0.0044349   0.0040841
           19          20          21          22          23          24
    1   0.0023395   0.0020513   0.0015868   0.0012477   0.0007723   0.0006954
           25          26          27          28          29          30
    1   0.0006796   0.0006349   0.0005240   0.0003487   0.0003232   0.0003071
           31          32          33          34          35          36
    1   0.0002459   0.0002276   0.0002082   0.0001972   0.0001419   0.0001318
           37          38          39          40          41          42
    1   0.0001121   0.0001026   0.0000967   0.0000879   0.0000799   0.0000756
           43          44          45          46          47          48
    1   0.0000750   0.0000721   0.0000684   0.0000507   0.0000370   0.0000324
           49          50          51          52          53          54
    1   0.0000302   0.0000227   0.0000215   0.0000171   0.0000163   0.0000163
           55          56          57          58
    1   0.0000135   0.0000131   0.0000118   0.0000113
  
*** Unpaired Electrons
 Yamaguchi Nd:         2.08
 Head-Gordon Nu:       1.46
 Head-Gordon Nu_nl:    1.22
  
**************************************************
 RAS-CI total energy for state   4:   -204.131749106238
  Excitation energy (eV) =  3.675042516716
  State symmetry: A2    (C2v      )
  <S^2>      :  0.7500
  Dipole Moment:    0.0000 X     0.0000 Y     0.1863 Z
  Trans. Moment:   -0.0000 X     0.0000 Y    -0.0000 Z
  Strength   :  0.000000
  Natural transition orbitals ( 1 -> 4 ):
   e-/hole pair  1 alpha:  ampl =  0.061485 (  0.4%)   [9 : 10]
   e-/hole pair  2 alpha:  ampl =  0.021970 (  0.0%)   [8 : 11]
   e-/hole pair  1 beta :  ampl =  0.914312 ( 83.6%)   [9 : 10]
   e-/hole pair  2 beta :  ampl =  0.103488 (  1.1%)   [8 : 11]
   Sum of square amplitudes: 0.85

 NATURAL OCCUPATION NUMBERS (higher than 1.0E-05)
            1           2           3           4           5           6
    1   2.0000000   2.0000000   1.9999999   1.9998358   1.9998350   1.9992351
            7           8           9          10          11          12
    1   1.9941754   1.9897304   1.9834087   1.9549440   1.9117710   1.0161165
           13          14          15          16          17          18
    1   0.1085682   0.0107061   0.0085938   0.0047018   0.0035153   0.0032682
           19          20          21          22          23          24
    1   0.0019115   0.0012539   0.0012491   0.0011756   0.0006974   0.0006860
           25          26          27          28          29          30
    1   0.0006295   0.0005084   0.0004477   0.0003880   0.0003256   0.0003226
           31          32          33          34          35          36
    1   0.0003036   0.0002210   0.0001905   0.0001336   0.0001318   0.0001200
           37          38          39          40          41          42
    1   0.0001070   0.0000849   0.0000814   0.0000752   0.0000737   0.0000695
           43          44          45          46          47          48
    1   0.0000549   0.0000469   0.0000373   0.0000265   0.0000262   0.0000206
           49          50          51          52          53          54
    1   0.0000205   0.0000167   0.0000132   0.0000127   0.0000124   0.0000101
Natural Orbitals stored in FCHK

  Amplitudes : 
  
 | HOLE  | ALPHA     | BETA      | PART  |    AMPLITUDE 
--------------------------------------------------
 |       | 111111000 | 111101000 |       |     9.2593045147781E-01
 |       | 111101100 | 110111000 |       |     1.4134466906161E-01
--------------------------------------------------
*** Contributions RASCI wfn    Active:  92.97
                                 Hole:   0.16
                                 Part:   6.87

      Mulliken population analysis 
 ---------------------------------------------------
   Atom    Charge (a.u.)   Spin (a.u.)  
 ---------------------------------------------------
   1  N    0.029027       -0.149673 
   2  O   -0.014513        0.574836 
   3  O   -0.014513        0.574836 
 ---------------------------------------------------
   Sum:    0.000000        1.000000 
 ---------------------------------------------------
 
  
 NATURAL OCCUPATION NUMBERS (higher than 1.0E-05)
            1           2           3           4           5           6
    1   2.0000000   2.0000000   1.9999999   1.9998358   1.9998350   1.9992351
            7           8           9          10          11          12
    1   1.9941754   1.9897304   1.9834087   1.9549440   1.9117710   1.0161165
           13          14          15          16          17          18
    1   0.1085682   0.0107061   0.0085938   0.0047018   0.0035153   0.0032682
           19          20          21          22          23          24
    1   0.0019115   0.0012539   0.0012491   0.0011756   0.0006974   0.0006860
           25          26          27          28          29          30
    1   0.0006295   0.0005084   0.0004477   0.0003880   0.0003256   0.0003226
           31          32          33          34          35          36
    1   0.0003036   0.0002210   0.0001905   0.0001336   0.0001318   0.0001200
           37          38          39          40          41          42
    1   0.0001070   0.0000849   0.0000814   0.0000752   0.0000737   0.0000695
           43          44          45          46          47          48
    1   0.0000549   0.0000469   0.0000373   0.0000265   0.0000262   0.0000206
           49          50          51          52          53          54
    1   0.0000205   0.0000167   0.0000132   0.0000127   0.0000124   0.0000101
  
*** Unpaired Electrons
 Yamaguchi Nd:         1.61
 Head-Gordon Nu:       1.30
 Head-Gordon Nu_nl:    1.08
  
**************************************************
 RAS-CI total energy for state   5:   -204.092601285530
  Excitation energy (eV) =  4.740308917256
  State symmetry: B1    (C2v      )
  <S^2>      :  3.7500
  Dipole Moment:    0.0000 X    -0.0000 Y    -0.0197 Z
  Trans. Moment:    0.0000 X    -0.0000 Y     0.0000 Z
  Strength   :  0.000000
  Natural transition orbitals ( 1 -> 5 ):
   e-/hole pair  1 alpha:  ampl =  0.536397 ( 28.8%)   [9 : 10]
   e-/hole pair  2 alpha:  ampl =  0.079618 (  0.6%)   [8 : 11]
   e-/hole pair  1 beta :  ampl =  0.536400 ( 28.8%)   [9 : 10]
   e-/hole pair  2 beta :  ampl =  0.079618 (  0.6%)   [8 : 11]
   Sum of square amplitudes: 0.59

 NATURAL OCCUPATION NUMBERS (higher than 1.0E-05)
            1           2           3           4           5           6
    1   2.0000000   2.0000000   1.9999999   1.9999325   1.9997687   1.9991566
            7           8           9          10          11          12
    1   1.9888589   1.9844310   1.9685992   1.9529529   1.0303258   1.0260421
           13          14          15          16          17          18
    1   1.0014067   0.0113654   0.0077001   0.0059012   0.0041714   0.0040579
           19          20          21          22          23          24
    1   0.0038703   0.0029830   0.0022009   0.0007217   0.0007014   0.0005006
           25          26          27          28          29          30
    1   0.0004443   0.0004187   0.0003832   0.0003735   0.0003521   0.0003000
           31          32          33          34          35          36
    1   0.0002481   0.0002297   0.0001979   0.0001616   0.0001520   0.0001107
           37          38          39          40          41          42
    1   0.0000970   0.0000945   0.0000909   0.0000858   0.0000752   0.0000679
           43          44          45          46          47          48
    1   0.0000660   0.0000616   0.0000295   0.0000280   0.0000242   0.0000225
           49          50          51          52          53          54
    1   0.0000198   0.0000175   0.0000164   0.0000140   0.0000135   0.0000127
           55          56
    1   0.0000115   0.0000111
Natural Orbitals stored in FCHK

  Amplitudes : 
  
 | HOLE  | ALPHA     | BETA      | PART  |    AMPLITUDE 
--------------------------------------------------
 |       | 111111000 | 111100100 |       |     5.3812567142593E-01
 |       | 111110100 | 111101000 |       |    -5.3812737513264E-01
 |       | 111101100 | 111110000 |       |     5.3812702302823E-01
 |       | 111101000 | 111110000 |  22   |    -1.0844282769974E-01
 |       | 111110000 | 111101000 |  22   |     1.0845547523676E-01
 |       | 111111000 | 111100000 |  22   |    -1.0844618277382E-01
--------------------------------------------------
*** Contributions RASCI wfn    Active:  89.26
                                 Hole:   0.38
                                 Part:  10.36

      Mulliken population analysis 
 ---------------------------------------------------
   Atom    Charge (a.u.)   Spin (a.u.)  
 ---------------------------------------------------
   1  N    0.219263        0.378307 
   2  O   -0.109632        0.310846 
   3  O   -0.109632        0.310846 
 ---------------------------------------------------
   Sum:    0.000000        1.000000 
 ---------------------------------------------------
 
  
 NATURAL OCCUPATION NUMBERS (higher than 1.0E-05)
            1           2           3           4           5           6
    1   2.0000000   2.0000000   1.9999999   1.9999325   1.9997687   1.9991566
            7           8           9          10          11          12
    1   1.9888589   1.9844310   1.9685992   1.9529529   1.0303258   1.0260421
           13          14          15          16          17          18
    1   1.0014067   0.0113654   0.0077001   0.0059012   0.0041714   0.0040579
           19          20          21          22          23          24
    1   0.0038703   0.0029830   0.0022009   0.0007217   0.0007014   0.0005006
           25          26          27          28          29          30
    1   0.0004443   0.0004187   0.0003832   0.0003735   0.0003521   0.0003000
           31          32          33          34          35          36
    1   0.0002481   0.0002297   0.0001979   0.0001616   0.0001520   0.0001107
           37          38          39          40          41          42
    1   0.0000970   0.0000945   0.0000909   0.0000858   0.0000752   0.0000679
           43          44          45          46          47          48
    1   0.0000660   0.0000616   0.0000295   0.0000280   0.0000242   0.0000225
           49          50          51          52          53          54
    1   0.0000198   0.0000175   0.0000164   0.0000140   0.0000135   0.0000127
           55          56
    1   0.0000115   0.0000111
  
*** Unpaired Electrons
 Yamaguchi Nd:         3.30
 Head-Gordon Nu:       3.10
 Head-Gordon Nu_nl:    3.01
  
**************************************************
 RAS-CI total energy for state   6:   -204.062945049334
  Excitation energy (eV) =  5.547296162369
  State symmetry: A2    (C2v      )
  <S^2>      :  0.7500
  Dipole Moment:   -0.0000 X    -0.0000 Y    -0.0474 Z
  Trans. Moment:   -0.0000 X    -0.0000 Y    -0.0000 Z
  Strength   :  0.000000
  Natural transition orbitals ( 1 -> 6 ):
   e-/hole pair  1 alpha:  ampl =  0.557043 ( 31.0%)   [9 : 10]
   e-/hole pair  2 alpha:  ampl =  0.050671 (  0.3%)   [8 : 11]
   e-/hole pair  1 beta :  ampl =  0.703449 ( 49.5%)   [9 : 10]
   e-/hole pair  2 beta :  ampl =  0.064108 (  0.4%)   [8 : 11]
   Sum of square amplitudes: 0.81

 NATURAL OCCUPATION NUMBERS (higher than 1.0E-05)
            1           2           3           4           5           6
    1   2.0000000   2.0000000   1.9999998   1.9998660   1.9995710   1.9988794
            7           8           9          10          11          12
    1   1.9861564   1.9845588   1.9565962   1.9346019   1.0451851   1.0387398
           13          14          15          16          17          18
    1   1.0095366   0.0103849   0.0067136   0.0052241   0.0044186   0.0038964
           19          20          21          22          23          24
    1   0.0034952   0.0031785   0.0018407   0.0008259   0.0007768   0.0006973
           25          26          27          28          29          30
    1   0.0006839   0.0005678   0.0004305   0.0003670   0.0003562   0.0002704
           31          32          33          34          35          36
    1   0.0002392   0.0002136   0.0002038   0.0001442   0.0001438   0.0001276
           37          38          39          40          41          42
    1   0.0001207   0.0001164   0.0000962   0.0000845   0.0000776   0.0000724
           43          44          45          46          47          48
    1   0.0000557   0.0000528   0.0000512   0.0000386   0.0000325   0.0000242
           49          50          51          52          53          54
    1   0.0000236   0.0000213   0.0000195   0.0000174   0.0000161   0.0000160
           55          56          57          58
    1   0.0000148   0.0000131   0.0000104   0.0000102
Natural Orbitals stored in FCHK

  Amplitudes : 
  
 | HOLE  | ALPHA     | BETA      | PART  |    AMPLITUDE 
--------------------------------------------------
 |       | 111111000 | 111010100 |       |     7.0504168436505E-01
 |       | 111110100 | 111100100 |       |    -1.1070768713582E-01
 |       | 111110100 | 111011000 |       |     1.3938489550968E-01
 |       | 111011100 | 111110000 |       |    -5.6565678885470E-01
 |       | 101111100 | 111011000 |       |    -1.0359141140550E-01
 |       | 111111000 | 111010000 |  22   |    -1.1963873086105E-01
--------------------------------------------------
*** Contributions RASCI wfn    Active:  90.38
                                 Hole:   0.30
                                 Part:   9.32

      Mulliken population analysis 
 ---------------------------------------------------
   Atom    Charge (a.u.)   Spin (a.u.)  
 ---------------------------------------------------
   1  N    0.253902        0.417476 
   2  O   -0.126951        0.291262 
   3  O   -0.126951        0.291262 
 ---------------------------------------------------
   Sum:    0.000000        1.000000 
 ---------------------------------------------------
 
  
 NATURAL OCCUPATION NUMBERS (higher than 1.0E-05)
            1           2           3           4           5           6
    1   2.0000000   2.0000000   1.9999998   1.9998660   1.9995710   1.9988794
            7           8           9          10          11          12
    1   1.9861564   1.9845588   1.9565962   1.9346019   1.0451851   1.0387398
           13          14          15          16          17          18
    1   1.0095366   0.0103849   0.0067136   0.0052241   0.0044186   0.0038964
           19          20          21          22          23          24
    1   0.0034952   0.0031785   0.0018407   0.0008259   0.0007768   0.0006973
           25          26          27          28          29          30
    1   0.0006839   0.0005678   0.0004305   0.0003670   0.0003562   0.0002704
           31          32          33          34          35          36
    1   0.0002392   0.0002136   0.0002038   0.0001442   0.0001438   0.0001276
           37          38          39          40          41          42
    1   0.0001207   0.0001164   0.0000962   0.0000845   0.0000776   0.0000724
           43          44          45          46          47          48
    1   0.0000557   0.0000528   0.0000512   0.0000386   0.0000325   0.0000242
           49          50          51          52          53          54
    1   0.0000236   0.0000213   0.0000195   0.0000174   0.0000161   0.0000160
           55          56          57          58
    1   0.0000148   0.0000131   0.0000104   0.0000102
  
*** Unpaired Electrons
 Yamaguchi Nd:         3.36
 Head-Gordon Nu:       3.09
 Head-Gordon Nu_nl:    3.02
  
**************************************************
 RAS-CI total energy for state   7:   -204.046046148937
  Excitation energy (eV) =  6.007138638212
  State symmetry: B1    (C2v      )
  <S^2>      :  0.7500
  Dipole Moment:   -0.0000 X    -0.0000 Y     0.0018 Z
  Trans. Moment:   -0.1878 X     0.0000 Y    -0.0000 Z
  Strength   :  0.005191
  Natural transition orbitals ( 1 -> 7 ):
   e-/hole pair  1 alpha:  ampl =  0.426130 ( 18.2%)   [9 : 10]
   e-/hole pair  2 alpha:  ampl =  0.041688 (  0.2%)   [8 : 11]
   e-/hole pair  1 beta :  ampl =  0.318416 ( 10.1%)   [9 : 10]
[...]
   218   -2.831823792565e-16
   219    3.003537773687e-02
   220    1.023257030634e-15
   221   -2.582365489689e-02
   222   -2.793797284229e-15
Sym=X
Ene= 0.556134
Spin=Alpha
Occup=0
     1   -1.815980151906e-16
     2    1.231303699872e-13
     3   -3.223364584812e-16
     4    2.059226579353e-15
     5   -6.957228197387e-15
     6    2.025322321385e-12
     7   -8.149188337980e-14
     8   -6.114516191186e-13
     9   -3.624864618390e-13
    10    2.702838654767e-12
    11    6.684687455375e-16
    12   -2.040923192474e-15
    13    4.681273246711e-14
    14   -5.710361698643e-13
    15    4.119716195267e-13
    16   -5.613454417047e-12
    17   -3.057409691455e-13
    18    3.273546699216e-13
    19   -4.943020707833e-12
    20    3.353509189170e-14
    21   -6.109598763728e-14
    22    7.346848135895e-13
    23   -4.387688107997e-15
    24   -2.267424214390e-14
    25    6.294319642327e-13
    26    1.202337414094e-14
    27   -9.787457846324e-14
    28    1.851474275847e-12
    29    1.104151883204e-14
    30   -1.407500968591e-13
    31    3.106243828937e-12
    32    2.385766165027e-12
    33   -5.476914785099e-13
    34   -8.934508602514e-14
    35   -1.702864660557e-12
    36    2.128179394977e+00
    37    3.503268267164e-14
    38   -3.272588745787e-14
    39   -2.809442514081e-15
    40   -5.027764337131e-14
    41    7.218712030326e-02
    42    2.169384293603e-12
    43   -5.908617900950e-13
    44   -8.037802876408e-14
    45   -1.411045629455e-12
    46    1.979831038517e+00
    47    8.570072787718e-13
    48   -3.098913498538e-13
    49   -3.547238542575e-14
    50   -5.703528582060e-13
    51    8.983440838937e-01
    52   -3.000140431373e-14
    53    2.439879962906e-13
    54   -1.705401283512e-14
    55   -2.391196168994e-13
    56   -3.259122888653e-01
    57   -1.327630342106e-13
    58    7.488663073798e-14
    59    3.541659731499e-14
    60    2.933931064259e-13
    61   -2.066696544496e-14
    62   -3.822171444786e-13
    63   -3.927527281931e-01
    64   -1.864860206402e-13
    65    8.647511304866e-14
    66    3.354866516036e-14
    67    1.320759342559e-13
    68   -1.020535844645e-14
    69   -2.003851420708e-13
    70   -1.835810637009e-01
    71   -9.903455416567e-14
    72    3.863345504127e-14
    73    1.610162490818e-16
    74   -9.931328798285e-14
    75    3.496364084889e-16
    76   -1.699804651890e-15
    77    6.182211249726e-15
    78   -9.920530345452e-13
    79    4.666433995997e-14
    80    1.391826934006e-13
    81    1.541122442378e-13
    82   -1.424942024821e-12
    83   -5.755983088233e-17
    84    1.688564358935e-04
    85    3.083775948069e-16
    86   -5.546148553552e-16
    87    6.641877985847e-03
    88    1.292550342437e-14
    89   -1.327145021143e-12
    90    1.644527864343e+00
    91    1.986014525131e-12
    92   -1.483780535652e-12
    93    2.146669882959e+00
    94    2.117787144463e-12
    95   -2.777756752681e-15
    96   -1.756974022587e-01
    97   -3.732068410180e-13
    98   -4.844439477287e-13
    99    2.856372333486e-01
   100   -2.122988863855e-13
   101   -1.970921965057e-13
   102   -2.167752971993e-01
   103   -8.977477699970e-13
   104   -8.810266816267e-14
   105   -7.589046112284e-01
   106   -1.850953323194e-12
   107    4.542633208582e-13
   108    8.753036247252e-13
   109    2.730318781596e-01
   110   -4.021761476750e-13
   111    6.872544248040e-01
   112    5.407604001893e-13
   113    8.548526491953e-13
   114    3.160224002026e-01
   115   -4.230386093576e-13
   116    7.489150728721e-01
   117    8.441210534088e-14
   118    8.964477447399e-14
   119    4.359412643755e-02
   120   -8.033856066712e-14
   121    8.141106447319e-02
   122    3.652771156379e-13
   123    4.709331668960e-13
   124    2.019191155187e-01
   125   -3.085434618672e-13
   126    4.409363620032e-01
   127   -4.152685173872e-14
   128    2.240661682638e-13
   129   -2.938038784504e-02
   130    1.194361819175e-13
   131    7.263939250565e-02
   132   -4.525267866321e-14
   133    1.080510394322e-01
   134   -4.608514954462e-14
   135    2.940227651426e-13
   136   -3.518294355881e-02
   137    9.958788960518e-14
   138    9.181154197913e-02
   139   -1.285100628248e-13
   140    1.330606550777e-01
   141   -8.826688071335e-15
   142    1.587604606311e-13
   143   -1.789151608085e-02
   144    3.921998974508e-14
   145    4.994098247757e-02
   146   -9.544340370377e-14
   147    6.978914016327e-02
   148    8.834330409131e-17
   149   -5.722795621438e-14
   150    1.827307091765e-16
   151   -8.327339799083e-16
   152    4.742385713403e-15
   153   -7.467117142745e-13
   154    5.921339560377e-14
   155    1.932951910040e-13
   156    1.888398268775e-13
   157   -1.208800201393e-12
   158    9.191347170351e-17
   159   -1.688564358935e-04
   160    5.000751327052e-16
   161    1.213720699549e-15
   162   -6.641877985849e-03
   163    1.461700316983e-14
   164    1.538237636545e-12
   165   -1.644527864343e+00
   166    3.351170951486e-12
   167    1.750833770026e-12
   168   -2.146669882960e+00
   169    3.405311436075e-12
   170   -9.849184458207e-15
   171    1.756974022587e-01
   172   -3.709870831266e-13
   173    4.809920974588e-13
   174   -2.856372333486e-01
   175   -1.368748127170e-13
   176    1.569054710686e-13
   177    2.167752971994e-01
   178   -9.527138873680e-13
   179    1.032432107143e-14
   180    7.589046112286e-01
   181   -1.945455995744e-12
   182    8.862099071511e-13
   183   -1.432165615773e-12
   184   -2.730318781597e-01
   185   -4.662437441479e-13
   186    6.872544248042e-01
   187    9.303585365993e-13
   188   -1.511039312891e-12
   189   -3.160224002027e-01
   190   -5.006510843742e-13
   191    7.489150728722e-01
   192    1.122091624744e-13
   193   -1.839434229498e-13
   194   -4.359412643756e-02
   195   -1.035245315423e-13
   196    8.141106447321e-02
   197    5.619981224446e-13
   198   -8.981747617663e-13
   199   -2.019191155188e-01
   200   -3.747711133627e-13
   201    4.409363620033e-01
   202   -1.133356279020e-13
   203   -1.225056241652e-13
   204    2.938038784503e-02
   205    2.273680480892e-13
   206    7.263939250568e-02
   207    5.003680784098e-15
   208   -1.080510394322e-01
   209   -1.342989200712e-13
   210   -1.777154380293e-13
   211    3.518294355880e-02
   212    2.317082859213e-13
   213    9.181154197917e-02
   214    7.874922031466e-14
   215   -1.330606550777e-01
   216   -5.445371935125e-14
   217   -9.664340528871e-14
   218    1.789151608084e-02
   219    1.075627026001e-13
   220    4.994098247759e-02
   221    7.095967654214e-14
   222   -6.978914016328e-02
Sym=X
Ene= 0.552015
Spin=Alpha
Occup=0
     1   -3.156827862071e-13
     2    1.597646579387e-10
     3   -4.642001281680e-13
     4    3.410449207496e-12
     5   -7.607619761403e-12
     6    1.010096754726e-09
     7   -1.710756092273e-11
     8   -3.780616217309e-10
     9   -1.263915032067e-10
    10    6.100801197667e-10
    11   -7.430087053719e-03
    12    7.073544770068e-17
    13   -1.450171630864e-12
    14    9.353109976707e+00
    15   -1.301560437158e-13
    16    6.364626216026e-11
    17    8.838962337181e+00
    18   -1.519548099681e-13
    19    5.203617923083e-12
    20    1.641891895821e+00
    21   -3.987428424059e-14
    22   -7.510175360771e-11
    23    2.129086145756e-02
    24   -1.767625531910e-15
    25   -2.049355693106e-11
    26    8.713240186143e-01
    27   -2.100487038821e-14
    28   -8.075096996027e-11
    29    2.927745396610e-01
    30   -1.116105659933e-14
    31   -1.074140752014e-10
    32   -1.554052060047e-10
    33    3.253988373568e-01
    34    5.016005148185e-14
    35    1.624060786952e-10
    36    1.992996731200e-14
    37   -5.761589903929e-12
    38    4.782129747472e-02
    39    4.687076430055e-15
    40    6.399269638923e-12
    41    3.816153299243e-16
    42   -1.477171977963e-10
    43    5.061241819155e-01
    44    5.006389495068e-14
    45    1.551795658106e-10
    46    2.046492040526e-14
    47   -6.836656012350e-11
    48    3.656743808341e-01
    49    2.874572082260e-14
    50    7.297265786246e-11
    51    9.011395300017e-15
    52    1.125605883927e-11
    53   -3.360056466287e-01
    54    6.763368597626e-15
    55   -2.576583957619e-12
    56   -4.309171572351e-15
    57    2.130191196748e-01
    58   -2.090096254326e-14
    59    1.333309600532e-11
    60   -3.715669925488e-01
    61    9.347572458469e-15
    62   -2.409739256247e-12
    63   -7.134603233209e-15
    64    1.844184598911e-01
    65   -2.316647000214e-14
    66    6.144981029181e-12
    67   -1.532568565086e-01
    68    4.994780619179e-15
    69   -7.547119756255e-13
    70   -4.253478589985e-15
    71    4.692818656488e-02
    72   -9.567933058380e-15
    73   -2.571388273738e-03
    74    1.444133685180e+00
    75   -5.814002060138e-03
    76    2.623697456461e-02
    77   -6.907733732828e-02
    78    1.006605460262e+01
    79   -1.975056830871e-01
    80   -3.181233515480e+00
    81   -1.161811478520e+00
    82    8.933631148293e+00
    83    2.220705669484e-04
    84    3.648037618074e-17
    85    2.330246082110e-04
    86    3.397444439373e-03
    87    1.934755223628e-16
    88    4.719536074429e-03
    89    3.282398602596e+00
    90    9.665657764019e-14
    91    2.805635026728e+00
    92    3.850546059918e+00
    93    1.075048235385e-13
    94    3.217880505531e+00
    95   -2.072177753861e-02
    96   -6.244379013381e-16
    97   -7.579056082576e-02
    98    1.113395068363e+00
    99    2.452557464511e-14
   100    7.445645552428e-01
   101    4.846428399173e-01
   102    7.149170244830e-15
   103    1.803035244331e-01
   104    1.490565054593e-01
   105   -2.141394898659e-15
   106   -2.156503793274e-01
   107    2.436211217549e-02
   108    7.522326452595e-01
   109    2.594205363326e-14
   110    3.909266175168e-01
   111    2.206617741740e-14
   112    5.115035165235e-02
   113    7.355788030192e-01
   114    2.789869105123e-14
   115    3.484391509917e-01
   116    2.316604880592e-14
   117    3.483770053936e-03
   118    5.232420386416e-02
   119    4.585270079287e-15
   120    1.503428066484e-02
   121    1.491513336826e-15
   122    3.318376512731e-02
   123    3.701568215482e-01
   124    1.865379786611e-14
   125    1.511555912167e-01
   126    1.216087925889e-14
   127   -6.501365843420e-02
   128    4.830011388126e-02
   129    1.210158332292e-15
   130    1.009605054267e-01
   131    4.297215295532e-15
   132    5.847621655043e-02
   133    3.887784781745e-15
   134   -6.796694666466e-02
   135    6.183072355621e-02
   136    7.001963743165e-16
   137    1.054572547009e-01
   138    4.382297922267e-15
   139    5.582384618791e-02
   140    5.095904054019e-15
   141   -2.933976361257e-02
   142    3.322019294275e-02
   143   -1.091810326952e-16
   144    4.465415918666e-02
   145    2.061138982227e-15
   146    2.089589328056e-02
   147    3.137839163773e-15
   148    2.571388274048e-03
   149   -1.444133685350e+00
   150    5.814002060834e-03
   151   -2.623697456780e-02
   152    6.907733733621e-02
   153   -1.006605460368e+01
   154    1.975056831040e-01
   155    3.181233515834e+00
   156    1.161811478638e+00
   157   -8.933631149046e+00
   158    2.220705669620e-04
   159   -1.477129992561e-17
   160   -2.330246082486e-04
   161    3.397444439553e-03
   162   -8.139946943136e-17
   163   -4.719536075876e-03
   164    3.282398602800e+00
   165    6.219637632575e-14
   166   -2.805635027100e+00
   167    3.850546060166e+00
   168    6.116522844977e-14
   169   -3.217880505992e+00
   170   -2.072177753886e-02
   171    6.801491956679e-15
   172    7.579056086463e-02
   173    1.113395068439e+00
   174    2.183250420030e-14
   175   -7.445645553041e-01
   176    4.846428399536e-01
   177    1.851465164803e-14
   178   -1.803035243844e-01
   179    1.490565054758e-01
   180    3.029586855732e-14
   181    2.156503794956e-01
   182   -2.436211223197e-02
   183    7.522326453628e-01
   184    2.918291565687e-14
   185   -3.909266174818e-01
   186   -5.863647301446e-15
   187   -5.115035171577e-02
   188    7.355788031349e-01
   189    3.283548580433e-14
   190   -3.484391509559e-01
   191   -4.394879094517e-15
   192   -3.483770061951e-03
   193    5.232420387846e-02
   194    6.488548199639e-15
   195   -1.503428066132e-02
   196    1.323860211374e-15
   197   -3.318376516668e-02
   198    3.701568216192e-01
   199    2.445899702936e-14
   200   -1.511555911961e-01
   201    3.503530752404e-16
   202    6.501365844005e-02
   203    4.830011389668e-02
   204    3.876439753446e-15
   205   -1.009605054357e-01
   206   -1.437837908479e-15
   207    5.847621653986e-02
   208    7.594234238173e-17
   209    6.796694667170e-02
   210    6.183072357461e-02
   211    3.510520962638e-15
   212   -1.054572547117e-01
   213    2.567346206024e-16
   214    5.582384617604e-02
   215   -1.527766298466e-15
   216    2.933976361612e-02
   217    3.322019295214e-02
   218    1.741573861336e-15
   219   -4.465415919217e-02
   220    3.086648213298e-16
   221    2.089589327487e-02
   222   -1.108978692728e-15
Sym=X
Ene= 0.558929
Spin=Alpha
Occup=0
     1   -3.076950974757e-03
     2    1.561780585289e+00
     3   -4.541386835513e-03
     4    3.323816815208e-02
     5   -7.579599853815e-02
     6    1.014996533058e+01
     7   -1.997193515633e-01
     8   -3.853718833403e+00
     9   -1.348887382857e+00
    10    6.491145782999e+00
    11    6.201521850295e-13
    12    3.254754528502e-16
    13   -1.783569862382e-02
    14   -7.094050842134e-10
    15   -1.612539215769e-13
    16    1.315943296211e+00
    17   -6.769268066771e-10
    18   -1.460067493588e-13
    19    5.152631708365e-01
    20   -1.308264976096e-10
    21    2.037120978188e-15
    22   -8.981077536189e-01
    23   -2.202183610446e-13
    24    1.148894174044e-15
    25   -2.393028818310e-01
    26   -6.730498521516e-11
    27    1.292826309979e-14
    28   -9.682061224924e-01
    29   -1.907877509102e-11
    30    1.842339357340e-14
    31   -1.289175033102e+00
    32   -1.863490604891e+00
    33   -3.814389346813e-11
    34    5.989959747010e-14
    35    1.723495968283e+00
    36    1.971569524498e-12
    37   -7.222559266214e-02
    38   -3.916698396385e-12
    39    1.544256429333e-15
    40    7.336646206852e-02
    41    6.571443842711e-14
    42   -1.796025968510e+00
    43   -4.919548130086e-11
    44    5.111606864454e-14
    45    1.720259020220e+00
    46    1.835688753510e-12
    47   -8.441739327980e-01
    48   -3.191504839857e-11
    49    2.061637599039e-14
    50    8.386990238026e-01
    51    8.308960107615e-13
    52    1.098954148036e-01
    53    2.773525954582e-11
    54    1.520675525905e-15
    55    1.464440076171e-02
    56   -3.019172613398e-13
    57   -1.630390936263e-11
    58   -2.815296551083e-14
    59    1.450503189665e-01
    60    3.085455654706e-11
    61    2.099777256912e-15
    62    2.869986499846e-03
    63   -3.659574594717e-13
    64   -1.458261335883e-11
    65   -2.540259067950e-14
    66    7.268738368267e-02
    67    1.282029215420e-11
    68    1.339875636726e-15
    69   -3.049329294939e-03
    70   -1.725352403749e-13
    71   -3.998588244513e-12
    72   -7.744036620346e-15
    73    1.568569273513e-03
    74   -8.630503484745e-01
    75    3.530369332891e-03
    76   -1.614359099816e-02
    77    4.045655786865e-02
    78   -5.388889244979e+00
    79    8.759500065510e-02
    80    1.766201677550e+00
    81    6.017401559907e-01
    82   -3.960245203065e+00
    83   -3.530274948169e-05
    84    1.641210905456e-16
    85   -2.085228326276e-04
    86   -2.638371197245e-04
    87    6.516223671869e-15
    88   -8.636403572674e-03
    89   -8.235581431796e-01
    90    1.606862743934e-12
    91   -2.135105736542e+00
    92   -1.045555223096e+00
    93    2.096811150278e-12
    94   -2.710580399564e+00
    95   -7.163583892339e-03
    96   -1.726692187988e-13
    97    2.378182087293e-01
    98   -4.109179438519e-01
    99    2.794221111876e-13
   100   -3.832412219661e-01
   101   -2.224294837804e-01
   102   -2.109281564546e-13
   103    2.879879934573e-01
   104   -1.428650814352e-01
   105   -7.431386842256e-13
   106    1.017417965781e+00
   107   -3.946794603721e-01
   108   -5.757608766097e-01
   109    2.794977126130e-13
   110    3.066784070420e-01
   111    6.733215512988e-13
   112   -4.278293353666e-01
   113   -6.682177313478e-01
   114    3.191623582732e-13
   115    2.921022558711e-01
   116    7.316430948535e-13
   117   -5.083807093312e-02
   118   -8.678971419757e-02
   119    4.382098535611e-14
   120    2.336808325620e-02
   121    7.998511549365e-14
   122   -2.572814616807e-01
   123   -4.220762568533e-01
   124    2.031456683750e-13
   125    1.525022373220e-01
   126    4.308522305249e-13
   127    2.787328321284e-02
   128   -1.029031824761e-01
   129   -2.682647069728e-14
   130   -4.579242184584e-02
   131    7.018880286144e-14
   132    7.913839728003e-02
   133    1.096687225621e-13
   134    3.853626446252e-02
   135   -1.207476965610e-01
   136   -3.303156543562e-14
   137   -6.133913018696e-02
   138    8.676670627795e-14
   139    8.449114366926e-02
   140    1.331322115580e-13
   141    2.194098822454e-02
   142   -6.064560776918e-02
   143   -1.706112623149e-14
   144   -3.403204939469e-02
   145    4.626821559141e-14
   146    3.841241216952e-02
   147    6.922598672811e-14
   148    1.568569273126e-03
   149   -8.630503482568e-01
   150    3.530369332015e-03
   151   -1.614359099421e-02
   152    4.045655785820e-02
   153   -5.388889243451e+00
   154    8.759500062475e-02
   155    1.766201677071e+00
   156    6.017401558145e-01
   157   -3.960245201685e+00
   158    3.530274945147e-05
   159   -1.416425226187e-16
   160   -2.085228325913e-04
   161    2.638371192732e-04
   162   -6.218113068237e-15
   163   -8.636403571910e-03
   164    8.235581426939e-01
   165   -1.437410671205e-12
   166   -2.135105736101e+00
   167    1.045555222518e+00
   168   -1.919460962086e-12
   169   -2.710580399057e+00
   170    7.163583894372e-03
   171    1.685503436055e-13
   172    2.378182087164e-01
   173    4.109179436748e-01
   174   -2.582947674389e-13
   175   -3.832412218487e-01
   176    2.224294836994e-01
   177    2.044856333550e-13
   178    2.879879934843e-01
   179    1.428650814036e-01
   180    7.181996881736e-13
   181    1.017417965744e+00
   182   -3.946794603633e-01
   183    5.757608764949e-01
   184   -2.363317415868e-13
   185    3.066784070946e-01
   186    6.021436200212e-13
   187   -4.278293353539e-01
   188    6.682177312344e-01
   189   -2.806891944156e-13
   190    2.921022559181e-01
   191    6.616916103895e-13
   192   -5.083807093230e-02
   193    8.678971418936e-02
   194   -4.106301880764e-14
   195    2.336808325806e-02
   196    7.256581524715e-14
   197   -2.572814616733e-01
   198    4.220762567958e-01
   199   -1.842349098556e-13
   200    1.525022373422e-01
   201    3.920737337731e-13
   202    2.787328320310e-02
   203    1.029031824677e-01
   204    2.884588799794e-14
   205   -4.579242183067e-02
   206    6.698158965137e-14
   207   -7.913839728818e-02
   208   -9.066705064139e-14
   209    3.853626445224e-02
   210    1.207476965503e-01
   211    3.748533002982e-14
   212   -6.133913017093e-02
   213    8.894885981012e-14
   214   -8.449114367711e-02
   215   -1.159367379294e-13
   216    2.194098822005e-02
   217    6.064560776352e-02
   218    2.182300505113e-14
   219   -3.403204938781e-02
   220    4.844952717190e-14
   221   -3.841241217251e-02
   222   -6.179186027277e-14
[5D7F]

======= END OF MOLDEN-FORMATTED INPUT FILE =======


        *************************************************************
        *                                                           *
        *  Thank you very much for using Q-Chem.  Have a nice day.  *
        *                                                           *
        *************************************************************


