                  Welcome to Q-Chem
     A Quantum Leap Into The Future Of Chemistry


 Q-Chem 6.0 (devel), Q-Chem, Inc., Pleasanton, CA (2022)

 E. Epifanovsky,  A. T. B. Gilbert,  Xintian Feng,  Joonho Lee,  Yuezhi Mao,  
 N. Mardirossian,  P. Pokhilko,  A. White,  M. Wormit,  M. P. Coons,  
 A. L. Dempwolff,  Zhengting Gan,  D. Hait,  P. R. Horn,  L. D. Jacobson,  
 I. Kaliman,  J. Kussmann,  A. W. Lange,  Ka Un Lao,  D. S. Levine,  Jie Liu,  
 S. C. McKenzie,  A. F. Morrison,  K. Nanda,  F. Plasser,  D. R. Rehn,  
 M. L. Vidal,  Zhi-Qiang You,  Ying Zhu,  B. Alam,  B. Albrecht,  
 A. Aldossary,  E. Alguire,  J. H. Andersen,  V. Athavale,  D. Barton,  
 K. Begam,  A. Behn,  N. Bellonzi,  Y. A. Bernard,  E. J. Berquist,  
 H. Burton,  A. Carreras,  K. Carter-Fenk,  Romit Chakraborty,  
 Chandrima Chakravarty,  Junhan Chen,  A. D. Chien,  K. D. Closser,  
 V. Cofer-Shabica,  L. Cunha,  S. Dasgupta,  Jia Deng,  M. de Wergifosse,  
 M. Diedenhofen,  Hainam Do,  S. Ehlert,  Po-Tung Fang,  S. Fatehi,  
 Qingguo Feng,  T. Friedhoff,  B. Ganoe,  J. Gayvert,  Qinghui Ge,  
 G. Gidofalvi,  M. Goldey,  J. Gomes,  C. Gonzalez-Espinoza,  S. Gulania,  
 A. Gunina,  J. A. Gyamfi,  M. W. D. Hanson-Heine,  P. H. P. Harbach,  
 A. W. Hauser,  M. F. Herbst,  M. Hernandez Vera,  M. Hodecker,  
 Z. C. Holden,  S. Houck,  Xunkun Huang,  Kerwin Hui,  B. C. Huynh,  
 K. Ikeda,  M. Ivanov,  Hyunjun Ji,  Zuxin Jin,  Hanjie Jiang,  B. Kaduk,  
 S. Kaehler,  R. Kang,  K. Khistyaev,  Jaehoon Kim,  Yongbin Kim,  
 P. Klunzinger,  Z. Koczor-Benda,  Joong Hoon Koh,  D. Kosenkov,  
 Saikiran Kotaru,  L. Koulias,  T. Kowalczyk,  C. M. Krauter,  K. Kue,  
 A. Kunitsa,  T. Kus,  A. Landau,  K. V. Lawler,  D. Lefrancois,  S. Lehtola,  
 Rain Li,  Shaozhi Li,  Yi-Pei Li,  Jiashu Liang,  M. Liebenthal,  
 Hung-Hsuan Lin,  You-Sheng Lin,  Fenglai Liu,  Kuan-Yu Liu,  
 M. Loipersberger,  A. Luenser,  C. Malbon,  A. Manjanath,  P. Manohar,  
 E. Mansoor,  S. F. Manzer,  Shan-Ping Mao,  A. V. Marenich,  T. Markovich,  
 S. Mason,  F. Matz,  S. A. Maurer,  P. F. McLaughlin,  M. F. S. J. Menger,  
 J.-M. Mewes,  S. A. Mewes,  P. Morgante,  Mohammad Mostafanejad,  
 J. W. Mullinax,  K. J. Oosterbaan,  G. Paran,  V. Parravicini,  
 Alexander C. Paul,  Suranjan K. Paul,  F. Pavosevic,  Zheng Pei,  S. Prager,  
 E. I. Proynov,  E. Ramos,  B. Rana,  A. E. Rask,  A. Rettig,  R. M. Richard,  
 F. Rob,  E. Rossomme,  T. Scheele,  M. Scheurer,  M. Schneider,  
 P. E. Schneider,  N. Sergueev,  S. M. Sharada,  Hengyuan Shen,  
 W. Skomorowski,  D. W. Small,  C. J. Stein,  Yingli Su,  Yu-Chuan Su,  
 E. J. Sundstrom,  Zhen Tao,  J. Thirman,  Hung-Yi Tsai,  T. Tsuchimochi,  
 N. M. Tubman,  C. Utku,  S. P. Veccham,  O. Vydrov,  J. Wenzel,  
 Jonathan Wong,  J. Witte,  A. Yamada,  Chou-Hsun Yang,  Kun Yao,  
 S. Yeganeh,  S. R. Yost,  A. Zech,  F. Zeller,  Igor Ying Zhang,  
 Xing Zhang,  Yu Zhang,  D. Zuev,  A. Aspuru-Guzik,  A. T. Bell,  
 N. A. Besley,  K. B. Bravaya,  B. R. Brooks,  D. Casanova,  Jeng-Da Chai,  
 Hsing-Ta Chen,  S. Coriani,  C. J. Cramer,  A. E. DePrince, III,  
 R. A. DiStasio Jr.,  A. Dreuw,  B. D. Dunietz,  T. R. Furlani,  
 W. A. Goddard III,  S. Grimme,  S. Hammes-Schiffer,  T. Head-Gordon,  
 W. J. Hehre,  Chao-Ping Hsu,  T.-C. Jagau,  Yousung Jung,  A. Klamt,  
 Jing Kong,  D. S. Lambrecht,  Xiangyuan Li,  WanZhen Liang,  N. J. Mayhall,  
 C. W. McCurdy,  J. B. Neaton,  T. Neudecker,  C. Ochsenfeld,  
 J. A. Parkhill,  R. Peverati,  V. A. Rassolov,  Haisheng Ren,  Yihan Shao,  
 L. V. Slipchenko,  R. P. Steele,  J. E. Subotnik,  A. J. W. Thom,  
 A. Tkatchenko,  D. G. Truhlar,  T. Van Voorhis,  Fan Wang,  
 T. A. Wesolowski,  K. B. Whaley,  H. L. Woodcock III,  P. M. Zimmerman,  
 S. Faraji,  P. M. W. Gill,  M. Head-Gordon,  J. M. Herbert,  A. I. Krylov

 Contributors to earlier versions of Q-Chem not listed above: 
 R. D. Adamson,  B. Austin,  R. Baer,  J. Baker,  G. J. O. Beran,  
 K. Brandhorst,  S. T. Brown,  E. F. C. Byrd,  Arup K. Chakraborty,  
 G. K. L. Chan,  Chun-Min Chang,  Yunqing Chen,  C.-L. Cheng,  
 Siu Hung Chien,  D. M. Chipman,  D. L. Crittenden,  H. Dachsel,  
 R. J. Doerksen,  A. D. Dutoi,  R. G. Edgar,  J. Fosso-Tande,  
 L. Fusti-Molnar,  D. Ghosh,  A. Ghysels,  A. Golubeva-Zadorozhnaya,  
 J. Gonthier,  M. S. Gordon,  S. R. Gwaltney,  G. Hawkins,  J. E. Herr,  
 A. Heyden,  S. Hirata,  E. G. Hohenstein,  G. Kedziora,  F. J. Keil,  
 C. Kelley,  Jihan Kim,  R. A. King,  R. Z. Khaliullin,  P. P. Korambath,  
 W. Kurlancheek,  A. Laurent,  A. M. Lee,  M. S. Lee,  S. V. Levchenko,  
 Ching Yeh Lin,  D. Liotard,  E. Livshits,  R. C. Lochan,  I. Lotan,  
 L. A. Martinez-Martinez,  P. E. Maslen,  N. Nair,  D. P. O'Neill,  
 D. Neuhauser,  E. Neuscamman,  C. M. Oana,  R. Olivares-Amaya,  R. Olson,  
 T. M. Perrine,  B. Peters,  P. A. Pieniazek,  A. Prociuk,  Y. M. Rhee,  
 J. Ritchie,  M. A. Rohrdanz,  E. Rosta,  N. J. Russ,  H. F. Schaefer III,  
 M. W. Schmidt,  N. E. Schultz,  S. Sharma,  N. Shenvi,  C. D. Sherrill,  
 A. C. Simmonett,  A. Sodt,  T. Stein,  D. Stuck,  K. S. Thanthiriwatte,  
 V. Vanovschi,  L. Vogt,  Tao Wang,  A. Warshel,  M. A. Watson,  
 C. F. Williams,  Q. Wu,  X. Xu,  Jun Yang,  W. Zhang,  Yan Zhao

   Please cite Q-Chem as follows:
  "Software for the frontiers of quantum chemistry:
   An overview of developments in the Q-Chem 5 package"
   J. Chem. Phys. 155, 084801 (2021)
   https://doi.org/10.1063/5.0055522 (open access)

 Q-Chem 6.0.1 for Intel X86 EM64T Linux

 Parts of Q-Chem use Armadillo 9.900.5 (Nocturnal Misbehaviour).
 http://arma.sourceforge.net/

 Q-Chem begins on Fri Feb  3 15:49:11 2023  

 Host: atlas-130
0

     Scratch files written to ./qchem137299//
 Processing $rem in /scratch/abel/SOFTWARE/qchem/config/preferences:
 Processing $rem in /dipc/acebg/.qchemrc:

 Checking the input file for inconsistencies... 	...done.

--------------------------------------------------------------
User input:
--------------------------------------------------------------
$comment
 RAS-SF CALCULATION
$end

$molecule
 READ no2.molecule
$end

$rem
!**CALCULATION TYPE***     
JOBTYPE            sp    
EXCHANGE           HF
CORRELATION        RASCI    !RASCI=Casanova; RASCI2=Zimmerman
BASIS              def2-TZVP

!***SCF REFERENCE***
SKIP_SCFMAN        FALSE
UNRESTRICTED       FALSE
!SCF_GUESS          core
!SCF_GUESS_MIX      FALSE
!SCF_GUESS_ALWAYS   FALSE
MAX_SCF_CYCLES     500
SCF_CONVERGENCE    8
!SCF_ALGORITHM      DIIS !DIIS,DM,DIIS_DM,GDM,DIIS_GDM,GD

SYMMETRY           TRUE !use of symmetry for calculating integrals
SYM_IGNORE         FALSE !turn off using symmetry
SYM_TOL            5 !tolerance for determining point group

!THRESH             14
SCF_FINAL_PRINT     1 !0,1,2,3

!****RAS-SF****
RAS_ROOTS          20       !number of RAS-CI roots to be computed
SET_ITER           100     !number of iterations in RASCI
RAS_ELEC           11       !number of electrons in RAS2
!RAS_ELEC_ALPHA            !spin-α electrons in RAS2 
!RAS_ELEC_BETA             !spin-β electrons in RAS2

RAS_ACT            9       !number of orbitals in RAS2 
RAS_ACT_ORB   [7,8,9,10,11,12,13,14,15]  !user-selected RAS2 orbitals
RAS_OCC            6       !number of orbitals in RAS1
N_FROZEN_CORE      0     !Number of frozen core orbitals
N_FROZEN_VIRTUAL   70      !Number of frozen virtual orbitals
RAS_NATORB         TRUE    !computation of the natural orbital occupancies
!RAS_NATORB_STATE  0      !Saves NO of i RAS computed state in .fchk ﬁle

RAS_DO_HOLE        TRUE   !presence of hole excitations in RAS-CI wave function
RAS_DO_PART        TRUE   !presence of particle excitations
RAS_AMPL_PRINT     10     !threshold (×10 2 ) for the CI amplitudes

RAS_GUESS_CS       0      !number of closed shell guess conﬁgurations
RAS_SPIN_MULT      0      !spin multiplicity: 0=any, 2n+1=defined 
RAS_SRDFT          FALSE  !short-range density functional RAS-CI
RAS_NFRAG          0     !fragments of excitation analysis in RASCI

RAS_PRINT          2      !level of information
RAS_NATORB         TRUE   !computation of the natural orbital occupancies
!RAS_NATORB_STATE  0      !Saves NO of i RAS computed state in .fchk ﬁle
RAS_FOD            TRUE

!****RAS-SOC****
CALC_SOC           TRUE   !calculate SOC for EOM-CC, RAS-CI, ADC, TDDFT/TDA and TDDFT
!RAS_SOC_2E        TRUE   !two-electron mean-ﬁeld contribution, default=true
RAS_SOC_SYM_DENS   TRUE   !averaging of α and β densities

!****MEMORY****
MEM_TOTAL          60000 !Default 2000 MB
MEM_STATIC         16000  !Default 64 MB

!**Molecular Properties and Analysis **                                                                                          
GUI                2
STATE_ANALYSIS     TRUE
MOLDEN_FORMAT      TRUE
PRINT_ORBITALS     20
$end                                           

--------------------------------------------------------------
 ----------------------------------------------------------------
             Standard Nuclear Orientation (Angstroms)
    I     Atom           X                Y                Z
 ----------------------------------------------------------------
    1      N      -0.0000000000     0.0000000000     0.3240267236
    2      O      -1.1048267521    -0.0000000000    -0.1417616916
    3      O       1.1048267521     0.0000000000    -0.1417616916
 ----------------------------------------------------------------
 Molecular Point Group                 C2v   NOp =  4
 Largest Abelian Subgroup              C2v   NOp =  4
 Nuclear Repulsion Energy =          64.75805752 hartrees
 There are       12 alpha and       11 beta electrons
 Requested basis set is def2-TZVP
 There are 33 shells and 93 basis functions

 Q-Chem warning in module libmdc/get_mega.C, line 167:

 Allowed MEM_STATIC has been capped at MEM_STATIC=8191.
 Reduce the value of MEM_STATIC to silence this warning.


 Total QAlloc Memory Limit  60000 MB
 Mega-Array Size      8007 MB
 MEM_STATIC part      8191 MB


                       Distance Matrix (Angstroms)
             N (  1)   O (  2)
   O (  2)  1.199000
   O (  3)  1.199000  2.209654
 
 A cutoff of  1.0D-12 yielded    553 shell pairs
 There are      4505 function pairs (      6120 Cartesian)
 Smallest overlap matrix eigenvalue = 1.09E-03

 Scale SEOQF with 1.000000e+00/1.000000e+00/1.000000e+00

 Standard Electronic Orientation quadrupole field applied
 Nucleus-field energy     =     0.0000000058 hartrees
 Guess from superposition of atomic densities
 Warning:  Energy on first SCF cycle will be non-variational
 SAD guess density has 23.000000 electrons

 -----------------------------------------------------------------------
  General SCF calculation program by
  Eric Jon Sundstrom, Paul Horn, Yuezhi Mao, Dmitri Zuev, Alec White,
  David Stuck, Shaama M.S., Shane Yost, Joonho Lee, David Small,
  Daniel Levine, Susi Lehtola, Hugh Burton, Evgeny Epifanovsky,
  Bang C. Huynh
 -----------------------------------------------------------------------
 Hartree-Fock
 Orthonormalizing orbitals
 A restricted open-shell SCF calculation will be
 performed using GDM
 SCF converges when RMS gradient is below 1.0e-08
 ---------------------------------------
  Cycle       Energy        RMS Gradient
 ---------------------------------------
    1    -203.2618078657      6.60e-01   Descent step
    2    -203.7097044339      3.26e-01   Descent step
    3    -203.9667979098      1.50e-01   Descent step
    4    -204.0833740979      5.56e-02   Normal BFGS step
    5    -204.1083550893      1.37e-02   Normal BFGS step
    6    -204.1091153302      8.62e-03   Normal BFGS step
    7    -204.1092320431      3.75e-03   Normal BFGS step
    8    -204.1092534141      1.22e-03   Normal BFGS step
    9    -204.1092579209      7.04e-04   Normal BFGS step
   10    -204.1092586475      2.86e-04   Normal BFGS step
   11    -204.1092588000      4.65e-05   Normal BFGS step
   12    -204.1092588165      1.51e-05   Normal BFGS step
   13    -204.1092588175      2.89e-06   Normal BFGS step
   14    -204.1092588176      4.96e-07   Normal BFGS step
   15    -204.1092588176      1.19e-07   Normal BFGS step
   16    -204.1092588176      3.24e-08   Normal BFGS step
   17    -204.1092588176      5.35e-09  Convergence criterion met
The disked orbital energies are calculated using alpha and beta Focks
 ---------------------------------------
 Alpha HF Exchange    Energy = -11.79595990577868
 Beta HF Exchange     Energy = -11.08738913532846
 Nuclear Attraction   Energy =   0.00000000000000
 One-Electron (alpha) Energy = -209.43343238437382
 One-Electron (beta)  Energy = -198.45846756593460
 Total Coulomb        Energy = 161.90793264687551
 Final Alpha MO Eigenvalues
            1           2           3           4           5           6
    1 -20.6859435 -20.6858997 -15.8840457  -1.6724562  -1.4933683  -0.9489979
            7           8           9          10          11          12
    1  -0.7974811  -0.8295614  -0.7634670  -0.5926187  -0.5322177  -0.5079577
           13          14          15          16          17          18
    1   0.0709463   0.2815599   0.3548492   0.3851773   0.4308181   0.4768780
           19          20          21          22          23          24
    1   0.5396906   0.5886550   0.6130596   0.6331566   0.6643281   0.6658690
           25          26          27          28          29          30
    1   0.7521696   0.8722310   0.9848682   1.1163035   1.1996336   1.2924480
           31          32          33          34          35          36
    1   1.5222864   1.6336775   1.7042747   1.7842413   1.8160265   1.8703171
           37          38          39          40          41          42
    1   2.0630454   2.1248491   2.1942458   2.2481489   2.3630748   2.3869639
           43          44          45          46          47          48
    1   2.4036917   2.4947978   2.5628859   2.8626550   3.0210041   3.0616747
           49          50          51          52          53          54
    1   3.0857780   3.1891224   3.2499389   3.4354505   4.0250133   4.0451024
           55          56          57          58          59          60
    1   4.0527341   4.1675415   4.2031030   4.4715848   4.5934791   4.6719974
           61          62          63          64          65          66
    1   4.7814002   4.8274705   4.9110023   4.9601698   5.3056477   5.4083942
           67          68          69          70          71          72
    1   5.4890097   5.5013980   5.5108560   5.5213376   5.7897797   5.8848833
           73          74          75          76          77          78
    1   5.9412553   5.9592839   6.4688930   6.6574791   6.7031629   6.7198282
           79          80          81          82          83          84
    1   6.7439463   6.7480974   6.9230492   6.9980185   7.3154051   7.3328571
           85          86          87          88          89          90
    1   7.3333196   7.4189038   7.4447351   7.6277055   7.8314926   7.8929959
           91          92          93
    1  33.1711889  45.2205393  45.2755465
 Final Beta MO Eigenvalues
            1           2           3           4           5           6
    1 -20.6759245 -20.6758530 -15.8629502  -1.6341675  -1.4568691  -0.8880450
            7           8           9          10          11          12
    1  -0.7550306  -0.7210012  -0.7476832  -0.5088019  -0.5223915   0.0345045
           13          14          15          16          17          18
    1   0.0978572   0.2951497   0.3675807   0.4051971   0.4359908   0.4966988
           19          20          21          22          23          24
    1   0.5460292   0.6048493   0.6156879   0.6487717   0.6690407   0.6727207
           25          26          27          28          29          30
    1   0.8161960   0.8793677   0.9977242   1.1406421   1.2277881   1.3009364
           31          32          33          34          35          36
    1   1.5400174   1.6671594   1.7137140   1.7952982   1.8443381   1.8913442
           37          38          39          40          41          42
    1   2.1233925   2.1342429   2.2221114   2.2735664   2.3771529   2.3936303
           43          44          45          46          47          48
    1   2.4163058   2.5175752   2.5924538   2.8730603   3.0512483   3.0671102
           49          50          51          52          53          54
    1   3.0934363   3.1999182   3.2592855   3.4594955   4.0486913   4.0682222
           55          56          57          58          59          60
    1   4.0721517   4.1843581   4.2089000   4.4989993   4.6079896   4.7231730
           61          62          63          64          65          66
    1   4.8098868   4.8427205   4.9237748   4.9991810   5.3191980   5.4188732
           67          68          69          70          71          72
    1   5.4983460   5.5092543   5.5244766   5.5347216   5.8068031   5.8916754
           73          74          75          76          77          78
    1   5.9503137   5.9738433   6.4967663   6.6684548   6.7262968   6.7414258
           79          80          81          82          83          84
    1   6.7588530   6.7679515   6.9409066   7.0056708   7.3221893   7.3406092
           85          86          87          88          89          90
    1   7.3456257   7.4344595   7.4620628   7.6419511   7.8432670   7.9074150
           91          92          93
    1  33.1870652  45.2260597  45.2810768
 SCF time:   CPU 9.28s  wall 10.00s 
<S^2> =          0.750000000
 SCF   energy in the final basis set =     -204.1092588176
 Total energy in the final basis set =     -204.1092588176
Setting RAS_srDFT_COR/EXC
  
     ##========================================##
     ||                                        ||
     ||              R A S M A N 2             ||
     ||________________________________________||
     ||                                        ||
     ||  Author:                               ||
     ||                                        ||
     ||        David Casanova (2010)           ||
     ||                                        ||
     ##========================================##
  
  ***************************************************
  *  RAS-CI Dimensions:                             *
  *                                                 *
  *  Active Elec.:  11 ( 6, 5)   Active Orb.:   9   *
  *  Doubly Occ. :   6           Doubly Vir.:  78   *
  *  Frozen Occ. :   0           Frozen Vir.:  70   *
  *                                                 *
  *  Total CI configurations:    291816             * 
  *    Active configurations:     10584             * 
  *      Hole configurations:     69552             * 
  *  Particle configurations:    211680             * 
  *                                                 *
  *   Requested states:       20                    *
  *  Spin multiplicity: Any multiplicity            *
  *                                                 *
  ***************************************************
-----------------------------------------
    Memory requirements of RASCI

 Each CI-vector requires      2.23 MiB 
 Max. subspace vectors           2000      

 Reduced Lists                0.00 MiB 
 Excitation Lists             0.01 MiB 
 Excitation Lists Sign        0.01 MiB 
 CI-space (Max)            4527.82 MiB 
 Integrals                   12.23 MiB 
 Memory required (Max)     4527.84 MiB 
 Memory available          7811.55 MiB 

    Disk requirements of RASCI

 Fock matrix                  0.13 MiB 
 2-electron integrals         0.56 MiB 
 CI-space                  8905.52 MiB 
 Disk required             8906.21 MiB 
-----------------------------------------
  
RAS1 HF-like energy:           -172.8759643904
 Computing integrals
 Computing J and K matrices
 Computing addressing
 Making amplitude guesses
 
Direct CI diagonalization
 ---------------------------------------------------
 Iter    Rts Conv    Rts Left    Ttl Dev     Max Dev
 ---------------------------------------------------
   1         0          20      0.016730    0.001255
   2         0          20      0.009487    0.000719
   3         0          20      0.011557    0.000991
   4         0          20      0.005659    0.000437
   5         0          20      0.006859    0.000700
   6         0          20      0.003934    0.000346
   7         0          20      0.004541    0.000449
   8         0          20      0.002637    0.000295
   9         0          20      0.003454    0.000431
  10         0          20      0.002057    0.000252
  11         0          20      0.003056    0.000831
  12         0          20      0.002126    0.000488
  13         0          20      0.002310    0.000615
  14         0          20      0.001825    0.000536
  15         0          20      0.001424    0.000427
  16         0          20      0.001637    0.000460
  17         0          20      0.001306    0.000489
  18         1          19      0.001181    0.000413
  19         1          19      0.000955    0.000370
  20         1          19      0.001417    0.000416
  21         1          19      0.001264    0.000380
  22         2          18      0.001187    0.000322
  23         3          17      0.000988    0.000281
  24         5          15      0.000834    0.000212
  25         6          14      0.000716    0.000170
  26         7          13      0.000541    0.000135
  27         9          11      0.000459    0.000115
  28        10          10      0.000345    0.000091
  29        10          10      0.000278    0.000072
  30        12           8      0.000224    0.000063
  31        12           8      0.000177    0.000044
  32        12           8      0.000147    0.000044
  33        15           5      0.000116    0.000029
  34        15           5      0.000100    0.000030
  35        16           4      0.000075    0.000019
  36        16           4      0.000069    0.000020
  37        17           3      0.000050    0.000012
  38        17           3      0.000046    0.000011
  39        17           3      0.000038    0.000009
  40        17           3      0.000034    0.000010
  41        17           3      0.000030    0.000009
  42        17           3      0.000027    0.000010
  43        17           3      0.000025    0.000009
  44        17           3      0.000022    0.000008
  45        18           2      0.000020    0.000007
  46        18           2      0.000017    0.000005
  47        19           1      0.000016    0.000005
  48        19           1      0.000015    0.000003
  49        19           1      0.000014    0.000003
  50        19           1      0.000013    0.000002
  51        19           1      0.000013    0.000001
  52        19           1      0.000013    0.000001
  53        20           0      0.000012    0.000001    Roots Converged
 ---------------------------------------------------
   
**************************************************
 RAS-CI total energy for state   1:   -204.231177512163
  Excitation energy (eV) =  0.000000000000
  State symmetry: A1    (C2v      )
  <S^2>      :  0.7500
  Dipole Moment:   -0.0000 X    -0.0000 Y    -0.0983 Z
 NATURAL OCCUPATION NUMBERS (higher than 1.0E-05)
            1           2           3           4           5           6
    1   1.9999998   1.9999997   1.9999996   1.9994798   1.9985874   1.9980232
            7           8           9          10          11          12
    1   1.9882078   1.9792094   1.9619991   1.9603916   1.9271195   1.0381689
           13          14          15          16          17          18
    1   0.1092403   0.0178300   0.0054698   0.0049323   0.0035535   0.0023643
           19          20          21          22          23
    1   0.0022768   0.0011377   0.0011305   0.0007443   0.0001345
Natural Orbitals stored in FCHK

  Amplitudes : 
  
 | HOLE  | ALPHA     | BETA      | PART  |    AMPLITUDE 
--------------------------------------------------
 |       | 111111000 | 111110000 |       |     9.4718015618622E-01
 |       | 111101100 | 111100100 |       |     1.1704323099782E-01
--------------------------------------------------
*** Contributions RASCI wfn    Active:  96.39
                                 Hole:   0.54
                                 Part:   3.07

      Mulliken population analysis 
 ---------------------------------------------------
   Atom    Charge (a.u.)   Spin (a.u.)  
 ---------------------------------------------------
   1  N    0.348649        0.565518 
   2  O   -0.174324        0.217241 
   3  O   -0.174324        0.217241 
 ---------------------------------------------------
   Sum:   -0.000000        1.000000 
 ---------------------------------------------------
 
  
 NATURAL OCCUPATION NUMBERS (higher than 1.0E-05)
            1           2           3           4           5           6
    1   1.9999998   1.9999997   1.9999996   1.9994798   1.9985874   1.9980232
            7           8           9          10          11          12
    1   1.9882078   1.9792094   1.9619991   1.9603916   1.9271195   1.0381689
           13          14          15          16          17          18
    1   0.1092403   0.0178300   0.0054698   0.0049323   0.0035535   0.0023643
           19          20          21          22          23
    1   0.0022768   0.0011377   0.0011305   0.0007443   0.0001345
  
*** Unpaired Electrons
 Yamaguchi Nd:         1.65
 Head-Gordon Nu:       1.30
 Head-Gordon Nu_nl:    1.07
  
**************************************************
 RAS-CI total energy for state   2:   -204.121406064691
  Excitation energy (eV) =  2.987033061218
  State symmetry: B2    (C2v      )
  <S^2>      :  0.7500
  Dipole Moment:   -0.0000 X    -0.0000 Y    -0.1375 Z
  Trans. Moment:   -0.0000 X     0.0821 Y     0.0000 Z
  Strength   :  0.000494
  Natural transition orbitals ( 1 -> 2 ):
   e-/hole pair  1 alpha:  ampl =  0.924812 ( 85.5%)   [9 : 10]
   e-/hole pair  2 alpha:  ampl =  0.046924 (  0.2%)   [8 : 11]
   e-/hole pair  1 beta :  ampl =  0.054852 (  0.3%)   [9 : 10]
   e-/hole pair  2 beta :  ampl =  0.041937 (  0.2%)   [8 : 11]
   Sum of square amplitudes: 0.86

 NATURAL OCCUPATION NUMBERS (higher than 1.0E-05)
            1           2           3           4           5           6
    1   1.9999998   1.9999997   1.9999996   1.9995007   1.9986150   1.9971027
            7           8           9          10          11          12
    1   1.9878204   1.9819370   1.9669956   1.9454556   1.8974202   1.0348979
           13          14          15          16          17          18
    1   0.1571523   0.0118271   0.0045096   0.0044452   0.0032882   0.0029481
           19          20          21          22          23
    1   0.0023595   0.0022102   0.0010580   0.0003351   0.0001226
Natural Orbitals stored in FCHK

  Amplitudes : 
  
 | HOLE  | ALPHA     | BETA      | PART  |    AMPLITUDE 
--------------------------------------------------
 |       | 111110100 | 111110000 |       |     9.1855332875668E-01
 |       | 111110100 | 101111000 |       |    -1.0195825148106E-01
 |       | 111011100 | 111011000 |       |    -1.4383713187705E-01
 |       | 101111100 | 111110000 |       |    -1.4860385406732E-01
--------------------------------------------------
*** Contributions RASCI wfn    Active:  94.66
                                 Hole:   1.38
                                 Part:   3.96

      Mulliken population analysis 
 ---------------------------------------------------
   Atom    Charge (a.u.)   Spin (a.u.)  
 ---------------------------------------------------
   1  N    0.387162        0.629232 
   2  O   -0.193581        0.185384 
   3  O   -0.193581        0.185384 
 ---------------------------------------------------
   Sum:   -0.000000        1.000000 
 ---------------------------------------------------
 
  
 NATURAL OCCUPATION NUMBERS (higher than 1.0E-05)
            1           2           3           4           5           6
    1   1.9999998   1.9999997   1.9999996   1.9995007   1.9986150   1.9971027
            7           8           9          10          11          12
    1   1.9878204   1.9819370   1.9669956   1.9454556   1.8974202   1.0348979
           13          14          15          16          17          18
    1   0.1571523   0.0118271   0.0045096   0.0044452   0.0032882   0.0029481
           19          20          21          22          23
    1   0.0023595   0.0022102   0.0010580   0.0003351   0.0001226
  
*** Unpaired Electrons
 Yamaguchi Nd:         1.79
 Head-Gordon Nu:       1.38
 Head-Gordon Nu_nl:    1.14
  
**************************************************
 RAS-CI total energy for state   3:   -204.091731851525
  Excitation energy (eV) =  3.794509484564
  State symmetry: B1    (C2v      )
  <S^2>      :  0.7500
  Dipole Moment:    0.0000 X    -0.0000 Y     0.3203 Z
  Trans. Moment:   -0.2534 X    -0.0000 Y     0.0000 Z
  Strength   :  0.005969
  Natural transition orbitals ( 1 -> 3 ):
   e-/hole pair  1 alpha:  ampl =  0.240615 (  5.8%)   [9 : 10]
   e-/hole pair  2 alpha:  ampl =  0.071962 (  0.5%)   [8 : 11]
   e-/hole pair  1 beta :  ampl =  0.877014 ( 76.9%)   [9 : 10]
   e-/hole pair  2 beta :  ampl =  0.141241 (  2.0%)   [8 : 11]
   Sum of square amplitudes: 0.86

 NATURAL OCCUPATION NUMBERS (higher than 1.0E-05)
            1           2           3           4           5           6
    1   1.9999999   1.9999997   1.9999997   1.9995995   1.9988587   1.9988404
            7           8           9          10          11          12
    1   1.9920087   1.9748427   1.9622589   1.8532952   1.8366207   1.1418517
           13          14          15          16          17          18
    1   0.2006543   0.0183928   0.0056307   0.0056260   0.0040235   0.0024046
           19          20          21          22          23
    1   0.0019532   0.0010043   0.0009853   0.0009534   0.0001959
Natural Orbitals stored in FCHK

  Amplitudes : 
  
 | HOLE  | ALPHA     | BETA      | PART  |    AMPLITUDE 
--------------------------------------------------
 |       | 111111000 | 111100100 |       |    -1.4716488592457E-01
 |       | 111111000 | 111011000 |       |     8.8633386250688E-01
 |       | 111111000 | 101101100 |       |    -1.0196163316466E-01
 |       | 111101100 | 111110000 |       |     2.4529032248773E-01
--------------------------------------------------
*** Contributions RASCI wfn    Active:  95.90
                                 Hole:   0.46
                                 Part:   3.64

      Mulliken population analysis 
 ---------------------------------------------------
   Atom    Charge (a.u.)   Spin (a.u.)  
 ---------------------------------------------------
   1  N    0.040873        0.014335 
   2  O   -0.020436        0.492832 
   3  O   -0.020436        0.492832 
 ---------------------------------------------------
   Sum:   -0.000000        1.000000 
 ---------------------------------------------------
 
  
 NATURAL OCCUPATION NUMBERS (higher than 1.0E-05)
            1           2           3           4           5           6
    1   1.9999999   1.9999997   1.9999997   1.9995995   1.9988587   1.9988404
            7           8           9          10          11          12
    1   1.9920087   1.9748427   1.9622589   1.8532952   1.8366207   1.1418517
           13          14          15          16          17          18
    1   0.2006543   0.0183928   0.0056307   0.0056260   0.0040235   0.0024046
           19          20          21          22          23
    1   0.0019532   0.0010043   0.0009853   0.0009534   0.0001959
  
*** Unpaired Electrons
 Yamaguchi Nd:         2.14
 Head-Gordon Nu:       1.48
 Head-Gordon Nu_nl:    1.26
  
**************************************************
 RAS-CI total energy for state   4:   -204.084809624721
  Excitation energy (eV) =  3.982872859549
  State symmetry: A2    (C2v      )
  <S^2>      :  0.7500
  Dipole Moment:    0.0000 X    -0.0000 Y     0.3947 Z
  Trans. Moment:   -0.0000 X     0.0000 Y     0.0000 Z
  Strength   :  0.000000
  Natural transition orbitals ( 1 -> 4 ):
   e-/hole pair  1 alpha:  ampl =  0.059381 (  0.4%)   [9 : 10]
   e-/hole pair  2 alpha:  ampl =  0.017199 (  0.0%)   [8 : 11]
   e-/hole pair  1 beta :  ampl =  0.913653 ( 83.5%)   [9 : 10]
   e-/hole pair  2 beta :  ampl =  0.103127 (  1.1%)   [8 : 11]
   Sum of square amplitudes: 0.85

 NATURAL OCCUPATION NUMBERS (higher than 1.0E-05)
            1           2           3           4           5           6
    1   1.9999999   1.9999998   1.9999998   1.9996842   1.9989105   1.9987510
            7           8           9          10          11          12
    1   1.9944726   1.9939398   1.9827658   1.9613175   1.9033794   1.0154707
           13          14          15          16          17          18
    1   0.1165724   0.0160676   0.0050275   0.0047449   0.0029647   0.0017605
           19          20          21          22          23
    1   0.0011837   0.0009918   0.0009630   0.0008514   0.0001816
Natural Orbitals stored in FCHK

  Amplitudes : 
  
 | HOLE  | ALPHA     | BETA      | PART  |    AMPLITUDE 
--------------------------------------------------
 |       | 111111000 | 111101000 |       |     9.3088958719362E-01
 |       | 111101100 | 110111000 |       |     1.6213528689630E-01
 |       | 110111100 | 111101000 |       |     1.1142348069406E-01
 |       | 110111100 | 110101100 |       |     1.1278642875360E-01
--------------------------------------------------
*** Contributions RASCI wfn    Active:  96.44
                                 Hole:   0.41
                                 Part:   3.15

      Mulliken population analysis 
 ---------------------------------------------------
   Atom    Charge (a.u.)   Spin (a.u.)  
 ---------------------------------------------------
   1  N    0.020489       -0.160227 
   2  O   -0.010244        0.580114 
   3  O   -0.010244        0.580114 
 ---------------------------------------------------
   Sum:   -0.000000        1.000000 
 ---------------------------------------------------
 
  
 NATURAL OCCUPATION NUMBERS (higher than 1.0E-05)
            1           2           3           4           5           6
    1   1.9999999   1.9999998   1.9999998   1.9996842   1.9989105   1.9987510
            7           8           9          10          11          12
    1   1.9944726   1.9939398   1.9827658   1.9613175   1.9033794   1.0154707
           13          14          15          16          17          18
    1   0.1165724   0.0160676   0.0050275   0.0047449   0.0029647   0.0017605
           19          20          21          22          23
    1   0.0011837   0.0009918   0.0009630   0.0008514   0.0001816
  
*** Unpaired Electrons
 Yamaguchi Nd:         1.61
 Head-Gordon Nu:       1.30
 Head-Gordon Nu_nl:    1.09
  
**************************************************
 RAS-CI total energy for state   5:   -204.054801808769
  Excitation energy (eV) =  4.799427076576
  State symmetry: A2    (C2v      )
  <S^2>      :  3.7500
  Dipole Moment:   -0.0000 X    -0.0000 Y     0.0019 Z
  Trans. Moment:   -0.0000 X    -0.0000 Y     0.0000 Z
  Strength   :  0.000000
  Natural transition orbitals ( 1 -> 5 ):
   e-/hole pair  1 alpha:  ampl =  0.535546 ( 28.7%)   [9 : 10]
   e-/hole pair  2 alpha:  ampl =  0.067702 (  0.5%)   [8 : 11]
   e-/hole pair  1 beta :  ampl =  0.535546 ( 28.7%)   [9 : 10]
   e-/hole pair  2 beta :  ampl =  0.067702 (  0.5%)   [8 : 11]
   Sum of square amplitudes: 0.58

 NATURAL OCCUPATION NUMBERS (higher than 1.0E-05)
            1           2           3           4           5           6
    1   1.9999999   1.9999997   1.9999996   1.9995717   1.9985545   1.9984928
            7           8           9          10          11          12
    1   1.9906210   1.9873489   1.9756521   1.9486666   1.0269924   1.0260788
           13          14          15          16          17          18
    1   1.0098431   0.0154718   0.0048132   0.0040074   0.0039503   0.0034239
           19          20          21          22          23
    1   0.0026628   0.0020974   0.0009522   0.0006448   0.0001551
Natural Orbitals stored in FCHK

  Amplitudes : 
  
 | HOLE  | ALPHA     | BETA      | PART  |    AMPLITUDE 
--------------------------------------------------
 |       | 111111000 | 111010100 |       |     5.4836197303790E-01
 |       | 111110100 | 111011000 |       |    -5.4836197303798E-01
 |       | 111011100 | 111110000 |       |     5.4836197303804E-01
--------------------------------------------------
*** Contributions RASCI wfn    Active:  94.92
                                 Hole:   0.72
                                 Part:   4.35

      Mulliken population analysis 
 ---------------------------------------------------
   Atom    Charge (a.u.)   Spin (a.u.)  
 ---------------------------------------------------
   1  N    0.224900        0.410799 
   2  O   -0.112450        0.294600 
   3  O   -0.112450        0.294600 
 ---------------------------------------------------
   Sum:   -0.000000        1.000000 
 ---------------------------------------------------
 
  
 NATURAL OCCUPATION NUMBERS (higher than 1.0E-05)
            1           2           3           4           5           6
    1   1.9999999   1.9999997   1.9999996   1.9995717   1.9985545   1.9984928
            7           8           9          10          11          12
    1   1.9906210   1.9873489   1.9756521   1.9486666   1.0269924   1.0260788
           13          14          15          16          17          18
    1   1.0098431   0.0154718   0.0048132   0.0040074   0.0039503   0.0034239
           19          20          21          22          23
    1   0.0026628   0.0020974   0.0009522   0.0006448   0.0001551
  
*** Unpaired Electrons
 Yamaguchi Nd:         3.27
 Head-Gordon Nu:       3.08
 Head-Gordon Nu_nl:    3.01
  
**************************************************
 RAS-CI total energy for state   6:   -204.052313138452
  Excitation energy (eV) =  4.867147241388
  State symmetry: B1    (C2v      )
  <S^2>      :  3.7500
  Dipole Moment:   -0.0000 X     0.0000 Y     0.0099 Z
  Trans. Moment:   -0.0000 X     0.0000 Y     0.0000 Z
  Strength   :  0.000000
  Natural transition orbitals ( 1 -> 6 ):
   e-/hole pair  1 alpha:  ampl =  0.535354 ( 28.7%)   [9 : 10]
   e-/hole pair  2 alpha:  ampl =  0.079950 (  0.6%)   [8 : 11]
   e-/hole pair  1 beta :  ampl =  0.535354 ( 28.7%)   [9 : 10]
   e-/hole pair  2 beta :  ampl =  0.079950 (  0.6%)   [8 : 11]
   Sum of square amplitudes: 0.59

 NATURAL OCCUPATION NUMBERS (higher than 1.0E-05)
            1           2           3           4           5           6
    1   1.9999999   1.9999997   1.9999996   1.9996452   1.9985743   1.9984776
            7           8           9          10          11          12
    1   1.9916462   1.9848777   1.9686372   1.9502434   1.0328570   1.0292831
           13          14          15          16          17          18
    1   1.0065045   0.0163671   0.0050512   0.0046589   0.0044301   0.0029109
           19          20          21          22          23
    1   0.0020691   0.0019196   0.0010266   0.0006682   0.0001529
Natural Orbitals stored in FCHK

  Amplitudes : 
  
 | HOLE  | ALPHA     | BETA      | PART  |    AMPLITUDE 
--------------------------------------------------
 |       | 111111000 | 111100100 |       |     5.4912314765125E-01
 |       | 111110100 | 111101000 |       |    -5.4912314765124E-01
 |       | 111101100 | 111110000 |       |     5.4912314765121E-01
--------------------------------------------------
*** Contributions RASCI wfn    Active:  94.82
                                 Hole:   0.75
                                 Part:   4.43

      Mulliken population analysis 
 ---------------------------------------------------
   Atom    Charge (a.u.)   Spin (a.u.)  
 ---------------------------------------------------
   1  N    0.183522        0.409523 
   2  O   -0.091761        0.295238 
   3  O   -0.091761        0.295238 
 ---------------------------------------------------
   Sum:   -0.000000        1.000000 
 ---------------------------------------------------
 
  
 NATURAL OCCUPATION NUMBERS (higher than 1.0E-05)
            1           2           3           4           5           6
    1   1.9999999   1.9999997   1.9999996   1.9996452   1.9985743   1.9984776
            7           8           9          10          11          12
    1   1.9916462   1.9848777   1.9686372   1.9502434   1.0328570   1.0292831
           13          14          15          16          17          18
    1   1.0065045   0.0163671   0.0050512   0.0046589   0.0044301   0.0029109
           19          20          21          22          23
    1   0.0020691   0.0019196   0.0010266   0.0006682   0.0001529
  
*** Unpaired Electrons
 Yamaguchi Nd:         3.29
 Head-Gordon Nu:       3.08
 Head-Gordon Nu_nl:    3.01
  
**************************************************
 RAS-CI total energy for state   7:   -204.018258188295
  Excitation energy (eV) =  5.793829583283
  State symmetry: A2    (C2v      )
  <S^2>      :  0.7500
  Dipole Moment:   -0.0000 X    -0.0000 Y    -0.0098 Z
  Trans. Moment:    0.0000 X     0.0000 Y     0.0000 Z
  Strength   :  0.000000
  Natural transition orbitals ( 1 -> 7 ):
   e-/hole pair  1 alpha:  ampl =  0.610004 ( 37.2%)   [9 : 10]
   e-/hole pair  2 alpha:  ampl =  0.050249 (  0.3%)   [8 : 11]
   e-/hole pair  1 beta :  ampl =  0.657917 ( 43.3%)   [9 : 10]
   e-/hole pair  2 beta :  ampl =  0.062719 (  0.4%)   [8 : 11]
   Sum of square amplitudes: 0.81

 NATURAL OCCUPATION NUMBERS (higher than 1.0E-05)
            1           2           3           4           5           6
    1   1.9999998   1.9999998   1.9999996   1.9993001   1.9985499   1.9981946
            7           8           9          10          11          12
    1   1.9886301   1.9843643   1.9475968   1.9232318   1.0581166   1.0511592
           13          14          15          16          17          18
    1   1.0119774   0.0165085   0.0046041   0.0040115   0.0039787   0.0034245
           19          20          21          22          23
    1   0.0023163   0.0021428   0.0009024   0.0008002   0.0001908
Natural Orbitals stored in FCHK

  Amplitudes : 
  
 | HOLE  | ALPHA     | BETA      | PART  |    AMPLITUDE 
--------------------------------------------------
 |       | 111111000 | 111010100 |       |     6.7563092226503E-01
 |       | 111110100 | 111100100 |       |     1.4213969068681E-01
 |       | 111101100 | 101110100 |       |    -1.0484607987456E-01
 |       | 111011100 | 111110000 |       |    -6.2928820748621E-01
 |       | 101111100 | 111011000 |       |    -1.1468891019240E-01
--------------------------------------------------
*** Contributions RASCI wfn    Active:  95.21
                                 Hole:   0.65
                                 Part:   4.15

      Mulliken population analysis 
 ---------------------------------------------------
   Atom    Charge (a.u.)   Spin (a.u.)  
 ---------------------------------------------------
   1  N    0.230330        0.563174 
   2  O   -0.115165        0.218413 
   3  O   -0.115165        0.218413 
 ---------------------------------------------------
   Sum:   -0.000000        1.000000 
 ---------------------------------------------------
 
  
 NATURAL OCCUPATION NUMBERS (higher than 1.0E-05)
            1           2           3           4           5           6
    1   1.9999998   1.9999998   1.9999996   1.9993001   1.9985499   1.9981946
            7           8           9          10          11          12
    1   1.9886301   1.9843643   1.9475968   1.9232318   1.0581166   1.0511592
           13          14          15          16          17          18
    1   1.0119774   0.0165085   0.0046041   0.0040115   0.0039787   0.0034245
           19          20          21          22          23
    1   0.0023163   0.0021428   0.0009024   0.0008002   0.0001908
  
*** Unpaired Electrons
 Yamaguchi Nd:         3.38
 Head-Gordon Nu:       3.08
 Head-Gordon Nu_nl:    3.02
  
**************************************************
 RAS-CI total energy for state   8:   -204.004888529323
  Excitation energy (eV) =  6.157636513845
  State symmetry: B1    (C2v      )
  <S^2>      :  0.7500
  Dipole Moment:   -0.0000 X    -0.0000 Y     0.0700 Z
  Trans. Moment:    0.2692 X    -0.0000 Y    -0.0000 Z
  Strength   :  0.010935
  Natural transition orbitals ( 1 -> 8 ):
   e-/hole pair  1 alpha:  ampl =  0.439619 ( 19.3%)   [9 : 10]
   e-/hole pair  2 alpha:  ampl =  0.039164 (  0.2%)   [8 : 11]
   e-/hole pair  1 beta :  ampl =  0.300195 (  9.0%)   [9 : 10]
   e-/hole pair  2 beta :  ampl =  0.155208 (  2.4%)   [8 : 11]
   Sum of square amplitudes: 0.32

 NATURAL OCCUPATION NUMBERS (higher than 1.0E-05)
            1           2           3           4           5           6
    1   1.9999998   1.9999998   1.9999997   1.9995403   1.9985577   1.9981718
            7           8           9          10          11          12
    1   1.9863145   1.9771552   1.9371739   1.9337361   1.0720268   1.0698647
           13          14          15          16          17          18
    1   0.9890665   0.0163659   0.0046649   0.0043709   0.0040937   0.0027222
           19          20          21          22          23
    1   0.0020932   0.0020086   0.0010333   0.0008760   0.0001645
Natural Orbitals stored in FCHK

  Amplitudes : 
  
 | HOLE  | ALPHA     | BETA      | PART  |    AMPLITUDE 
--------------------------------------------------
 |       | 111111000 | 111100100 |       |     2.9777859432645E-01
 |       | 111111000 | 111011000 |       |    -1.4265226800966E-01
 |       | 111110100 | 111101000 |       |     7.5281862611644E-01
 |       | 111101100 | 111110000 |       |     4.5504003178997E-01
 |       | 111011100 | 110111000 |       |    -1.2998272470723E-01
--------------------------------------------------
*** Contributions RASCI wfn    Active:  95.22
                                 Hole:   0.70
                                 Part:   4.07

      Mulliken population analysis 
 ---------------------------------------------------
   Atom    Charge (a.u.)   Spin (a.u.)  
 ---------------------------------------------------
   1  N    0.161346        0.191490 
   2  O   -0.080673        0.404255 
   3  O   -0.080673        0.404255 
 ---------------------------------------------------
   Sum:   -0.000000        1.000000 
 ---------------------------------------------------
 
  
 NATURAL OCCUPATION NUMBERS (higher than 1.0E-05)
            1           2           3           4           5           6
    1   1.9999998   1.9999998   1.9999997   1.9995403   1.9985577   1.9981718
            7           8           9          10          11          12
    1   1.9863145   1.9771552   1.9371739   1.9337361   1.0720268   1.0698647
           13          14          15          16          17          18
    1   0.9890665   0.0163659   0.0046649   0.0043709   0.0040937   0.0027222
           19          20          21          22          23
    1   0.0020932   0.0020086   0.0010333   0.0008760   0.0001645
  
*** Unpaired Electrons
 Yamaguchi Nd:         3.40
 Head-Gordon Nu:       3.05
 Head-Gordon Nu_nl:    3.02
  
**************************************************
 RAS-CI total energy for state   9:   -203.970697171217
  Excitation energy (eV) =  7.088030704881
  State symmetry: A2    (C2v      )
  <S^2>      :  0.7500
  Dipole Moment:   -0.0000 X    -0.0000 Y    -0.0666 Z
  Trans. Moment:    0.0000 X     0.0000 Y     0.0000 Z
  Strength   :  0.000000
  Natural transition orbitals ( 1 -> 9 ):
   e-/hole pair  1 alpha:  ampl =  0.348093 ( 12.1%)   [9 : 10]
   e-/hole pair  2 alpha:  ampl =  0.044563 (  0.2%)   [8 : 11]
   e-/hole pair  1 beta :  ampl =  0.364251 ( 13.3%)   [9 : 10]
   e-/hole pair  2 beta :  ampl =  0.083691 (  0.7%)   [8 : 11]
   Sum of square amplitudes: 0.27

 NATURAL OCCUPATION NUMBERS (higher than 1.0E-05)
            1           2           3           4           5           6
    1   1.9999998   1.9999997   1.9999997   1.9992017   1.9986212   1.9959260
            7           8           9          10          11          12
    1   1.9812055   1.9793931   1.9080444   1.9022894   1.1063817   1.0883453
           13          14          15          16          17          18
    1   0.9969285   0.0201261   0.0053781   0.0044485   0.0037965   0.0028791
           19          20          21          22          23
    1   0.0026253   0.0023414   0.0010942   0.0007950   0.0001797
Natural Orbitals stored in FCHK

  Amplitudes : 
  
 | HOLE  | ALPHA     | BETA      | PART  |    AMPLITUDE 
--------------------------------------------------
 |       | 111111000 | 111010100 |       |     3.6770610768099E-01
 |       | 111110100 | 111100100 |       |    -2.4739352920758E-01
 |       | 111110100 | 111011000 |       |     7.2094409427237E-01
 |       | 111011100 | 111110000 |       |     3.5323798659140E-01
 |       | 111011100 | 101111000 |       |     1.7814225696817E-01
 |       | 101111100 | 111011000 |       |     1.2000352243567E-01
--------------------------------------------------
*** Contributions RASCI wfn    Active:  94.74
                                 Hole:   0.81
                                 Part:   4.45

      Mulliken population analysis 
 ---------------------------------------------------
   Atom    Charge (a.u.)   Spin (a.u.)  
 ---------------------------------------------------
   1  N    0.196248        0.083327 
   2  O   -0.098124        0.458336 
   3  O   -0.098124        0.458336 
 ---------------------------------------------------
   Sum:   -0.000000        1.000000 
 ---------------------------------------------------
 
  
 NATURAL OCCUPATION NUMBERS (higher than 1.0E-05)
            1           2           3           4           5           6
    1   1.9999998   1.9999997   1.9999997   1.9992017   1.9986212   1.9959260
            7           8           9          10          11          12
    1   1.9812055   1.9793931   1.9080444   1.9022894   1.1063817   1.0883453
           13          14          15          16          17          18
    1   0.9969285   0.0201261   0.0053781   0.0044485   0.0037965   0.0028791
           19          20          21          22          23
    1   0.0026253   0.0023414   0.0010942   0.0007950   0.0001797
  
*** Unpaired Electrons
 Yamaguchi Nd:         3.52
 Head-Gordon Nu:       3.08
 Head-Gordon Nu_nl:    3.03
  
**************************************************
 RAS-CI total energy for state  10:   -203.935228084741
  Excitation energy (eV) =  8.053193653853
  State symmetry: A1    (C2v      )
  <S^2>      :  0.7500
  Dipole Moment:    0.0000 X     0.0000 Y     0.0208 Z
  Trans. Moment:    0.0000 X     0.0000 Y    -0.4099 Z
  Strength   :  0.033156
  Natural transition orbitals ( 1 -> 10 ):
   e-/hole pair  1 alpha:  ampl =  0.249078 (  6.2%)   [9 : 10]
   e-/hole pair  2 alpha:  ampl =  0.131469 (  1.7%)   [8 : 11]
   e-/hole pair  1 beta :  ampl =  0.821498 ( 67.5%)   [9 : 10]
   e-/hole pair  2 beta :  ampl =  0.122583 (  1.5%)   [8 : 11]
   Sum of square amplitudes: 0.78

 NATURAL OCCUPATION NUMBERS (higher than 1.0E-05)
            1           2           3           4           5           6
    1   1.9999998   1.9999998   1.9999997   1.9994827   1.9987291   1.9987071
            7           8           9          10          11          12
    1   1.9920426   1.8614212   1.8540227   1.8117661   1.7893099   1.2730522
           13          14          15          16          17          18
    1   0.3568333   0.0343037   0.0093400   0.0084360   0.0034429   0.0026468
           19          20          21          22          23
    1   0.0025956   0.0013461   0.0012406   0.0010614   0.0002207
Natural Orbitals stored in FCHK

  Amplitudes : 
  
 | HOLE  | ALPHA     | BETA      | PART  |    AMPLITUDE 
--------------------------------------------------
 |       | 111111000 | 111001100 |       |    -2.2353780624369E-01
 |       | 111111000 | 110110100 |       |     1.2423956720816E-01
 |       | 111111000 | 101111000 |       |     8.1349649677585E-01
 |       | 111110100 | 110111000 |       |    -1.2825822897577E-01
 |       | 111110010 | 111110000 |       |    -1.1412852581926E-01
 |       | 111101100 | 111100100 |       |     1.6933665290202E-01
 |       | 111101100 | 111011000 |       |    -1.9964001485796E-01
 |       | 110111100 | 111110000 |       |    -2.5249779618392E-01
--------------------------------------------------
*** Contributions RASCI wfn    Active:  95.56
                                 Hole:   0.59
                                 Part:   3.85

      Mulliken population analysis 
 ---------------------------------------------------
   Atom    Charge (a.u.)   Spin (a.u.)  
 ---------------------------------------------------
   1  N    0.116845        0.456938 
   2  O   -0.058422        0.271531 
   3  O   -0.058422        0.271531 
 ---------------------------------------------------
   Sum:   -0.000000        1.000000 
 ---------------------------------------------------
 
  
 NATURAL OCCUPATION NUMBERS (higher than 1.0E-05)
            1           2           3           4           5           6
    1   1.9999998   1.9999998   1.9999997   1.9994827   1.9987291   1.9987071
            7           8           9          10          11          12
    1   1.9920426   1.8614212   1.8540227   1.8117661   1.7893099   1.2730522
           13          14          15          16          17          18
    1   0.3568333   0.0343037   0.0093400   0.0084360   0.0034429   0.0026468
           19          20          21          22          23
    1   0.0025956   0.0013461   0.0012406   0.0010614   0.0002207
  
*** Unpaired Electrons
 Yamaguchi Nd:         2.91
 Head-Gordon Nu:       1.84
 Head-Gordon Nu_nl:    1.60
  
**************************************************
 RAS-CI total energy for state  11:   -203.932890357997
  Excitation energy (eV) =  8.116806435075
  State symmetry: B2    (C2v      )
  <S^2>      :  0.7500
  Dipole Moment:    0.0000 X    -0.0000 Y     0.3297 Z
  Trans. Moment:    0.0000 X     0.2068 Y     0.0000 Z
  Strength   :  0.008502
  Natural transition orbitals ( 1 -> 11 ):
   e-/hole pair  1 alpha:  ampl =  0.062144 (  0.4%)   [9 : 10]
   e-/hole pair  2 alpha:  ampl =  0.030156 (  0.1%)   [8 : 11]
   e-/hole pair  1 beta :  ampl =  0.846989 ( 71.7%)   [9 : 10]
   e-/hole pair  2 beta :  ampl =  0.067184 (  0.5%)   [8 : 11]
   Sum of square amplitudes: 0.73

 NATURAL OCCUPATION NUMBERS (higher than 1.0E-05)
            1           2           3           4           5           6
    1   2.0000000   1.9999998   1.9999998   1.9994085   1.9989669   1.9986207
            7           8           9          10          11          12
    1   1.9940561   1.9861773   1.9832495   1.9647435   1.5315367   1.1914242
           13          14          15          16          17          18
    1   0.3111712   0.0192190   0.0063234   0.0052804   0.0031080   0.0022878
           19          20          21          22          23
    1   0.0013872   0.0011117   0.0008767   0.0008353   0.0002164
Natural Orbitals stored in FCHK

  Amplitudes : 
  
 | HOLE  | ALPHA     | BETA      | PART  |    AMPLITUDE 
--------------------------------------------------
 |       | 111111000 | 110111000 |       |     8.3478984461163E-01
 |       | 111101100 | 111101000 |       |     4.1964798917717E-01
 |       | 111101100 | 110101100 |       |    -1.6111020863158E-01
 |       | 110111100 | 110111000 |       |    -1.3112894535293E-01
--------------------------------------------------
*** Contributions RASCI wfn    Active:  95.93
                                 Hole:   0.44
                                 Part:   3.62

      Mulliken population analysis 
 ---------------------------------------------------
   Atom    Charge (a.u.)   Spin (a.u.)  
 ---------------------------------------------------
   1  N    0.082481        0.714147 
   2  O   -0.041241        0.142927 
   3  O   -0.041241        0.142927 
 ---------------------------------------------------
   Sum:   -0.000000        1.000000 
 ---------------------------------------------------
 
  
 NATURAL OCCUPATION NUMBERS (higher than 1.0E-05)
            1           2           3           4           5           6
    1   2.0000000   1.9999998   1.9999998   1.9994085   1.9989669   1.9986207
            7           8           9          10          11          12
    1   1.9940561   1.9861773   1.9832495   1.9647435   1.5315367   1.1914242
           13          14          15          16          17          18
    1   0.3111712   0.0192190   0.0063234   0.0052804   0.0031080   0.0022878
           19          20          21          22          23
    1   0.0013872   0.0011117   0.0008767   0.0008353   0.0002164
  
*** Unpaired Electrons
 Yamaguchi Nd:         2.43
 Head-Gordon Nu:       1.70
 Head-Gordon Nu_nl:    1.73
  
**************************************************
 RAS-CI total energy for state  12:   -203.920222154796
  Excitation energy (eV) =  8.461525782932
  State symmetry: B1    (C2v      )
  <S^2>      :  0.7500
  Dipole Moment:    0.0000 X    -0.0000 Y    -0.0294 Z
  Trans. Moment:   -1.0131 X    -0.0000 Y    -0.0000 Z
  Strength   :  0.212761
  Natural transition orbitals ( 1 -> 12 ):
   e-/hole pair  1 alpha:  ampl =  0.467750 ( 21.9%)   [9 : 10]
   e-/hole pair  2 alpha:  ampl =  0.137973 (  1.9%)   [8 : 11]
   e-/hole pair  1 beta :  ampl =  0.601281 ( 36.2%)   [9 : 10]
   e-/hole pair  2 beta :  ampl =  0.420342 ( 17.7%)   [8 : 11]
   Sum of square amplitudes: 0.83

 NATURAL OCCUPATION NUMBERS (higher than 1.0E-05)
            1           2           3           4           5           6
    1   1.9999999   1.9999998   1.9999997   1.9990976   1.9980177   1.9950638
            7           8           9          10          11          12
    1   1.9796681   1.9536551   1.9386550   1.7811615   1.2541976   1.1957456
           13          14          15          16          17          18
    1   0.8052444   0.0577822   0.0157786   0.0100752   0.0049011   0.0038571
           19          20          21          22          23
    1   0.0029308   0.0020313   0.0010511   0.0009173   0.0001696
Natural Orbitals stored in FCHK

  Amplitudes : 
  
 | HOLE  | ALPHA     | BETA      | PART  |    AMPLITUDE 
--------------------------------------------------
 |       | 111111000 | 111100100 |       |     6.1740434881172E-01
 |       | 111111000 | 111011000 |       |     1.8735066414223E-01
 |       | 111111000 | 111010010 |       |     1.2992404587882E-01
 |       | 111111000 | 011111000 |       |    -3.5856031443254E-01
 |       | 111110100 | 111101000 |       |     1.3724287746338E-01
 |       | 111101100 | 111110000 |       |    -4.8016147134834E-01
 |       | 111101100 | 110110100 |       |     1.7370612482986E-01
 |       | 111011010 | 111110000 |       |    -1.0272230165440E-01
 |       | 110111100 | 111100100 |       |     1.5436650645386E-01
--------------------------------------------------
*** Contributions RASCI wfn    Active:  92.65
                                 Hole:   1.22
                                 Part:   6.12

      Mulliken population analysis 
 ---------------------------------------------------
   Atom    Charge (a.u.)   Spin (a.u.)  
 ---------------------------------------------------
   1  N    0.182133        0.442568 
   2  O   -0.091067        0.278716 
   3  O   -0.091067        0.278716 
 ---------------------------------------------------
   Sum:   -0.000000        1.000000 
 ---------------------------------------------------
 
  
 NATURAL OCCUPATION NUMBERS (higher than 1.0E-05)
            1           2           3           4           5           6
    1   1.9999999   1.9999998   1.9999997   1.9990976   1.9980177   1.9950638
            7           8           9          10          11          12
    1   1.9796681   1.9536551   1.9386550   1.7811615   1.2541976   1.1957456
           13          14          15          16          17          18
    1   0.8052444   0.0577822   0.0157786   0.0100752   0.0049011   0.0038571
           19          20          21          22          23
    1   0.0029308   0.0020313   0.0010511   0.0009173   0.0001696
  
*** Unpaired Electrons
 Yamaguchi Nd:         3.71
 Head-Gordon Nu:       2.81
 Head-Gordon Nu_nl:    2.92
  
**************************************************
 RAS-CI total energy for state  13:   -203.907272059992
  Excitation energy (eV) =  8.813915791589
  State symmetry: A1    (C2v      )
  <S^2>      :  3.7500
  Dipole Moment:    0.0000 X    -0.0000 Y     0.1956 Z
  Trans. Moment:    0.0000 X     0.0000 Y    -0.0000 Z
  Strength   :  0.000000
  Natural transition orbitals ( 1 -> 13 ):
   e-/hole pair  1 alpha:  ampl =  0.469761 ( 22.1%)   [9 : 10]
   e-/hole pair  2 alpha:  ampl =  0.055328 (  0.3%)   [8 : 11]
   e-/hole pair  1 beta :  ampl =  0.469761 ( 22.1%)   [9 : 10]
   e-/hole pair  2 beta :  ampl =  0.055328 (  0.3%)   [8 : 11]
   Sum of square amplitudes: 0.45

 NATURAL OCCUPATION NUMBERS (higher than 1.0E-05)
            1           2           3           4           5           6
    1   1.9999999   1.9999997   1.9999997   1.9996554   1.9989157   1.9988385
            7           8           9          10          11          12
    1   1.9926329   1.9817731   1.7057645   1.6937552   1.2963112   1.2878073
           13          14          15          16          17          18
    1   1.0003294   0.0179159   0.0064159   0.0055719   0.0040993   0.0035318
           19          20          21          22          23
    1   0.0028083   0.0019004   0.0010851   0.0007334   0.0001554
Natural Orbitals stored in FCHK

  Amplitudes : 
  
 | HOLE  | ALPHA     | BETA      | PART  |    AMPLITUDE 
--------------------------------------------------
 |       | 111111000 | 111001100 |       |    -2.8395692284131E-01
 |       | 111111000 | 110110100 |       |    -4.6771574927688E-01
 |       | 111110100 | 110111000 |       |     4.6771574927610E-01
 |       | 111101100 | 111011000 |       |     2.8395692284130E-01
 |       | 111011100 | 111101000 |       |    -2.8395692284086E-01
 |       | 110111100 | 111110000 |       |    -4.6771574927663E-01
--------------------------------------------------
*** Contributions RASCI wfn    Active:  94.84
                                 Hole:   0.38
                                 Part:   4.77

      Mulliken population analysis 
 ---------------------------------------------------
   Atom    Charge (a.u.)   Spin (a.u.)  
 ---------------------------------------------------
   1  N    0.186315        0.438436 
   2  O   -0.093157        0.280782 
   3  O   -0.093157        0.280782 
 ---------------------------------------------------
   Sum:   -0.000000        1.000000 
 ---------------------------------------------------
 
  
 NATURAL OCCUPATION NUMBERS (higher than 1.0E-05)
            1           2           3           4           5           6
    1   1.9999999   1.9999997   1.9999997   1.9996554   1.9989157   1.9988385
            7           8           9          10          11          12
    1   1.9926329   1.9817731   1.7057645   1.6937552   1.2963112   1.2878073
           13          14          15          16          17          18
    1   1.0003294   0.0179159   0.0064159   0.0055719   0.0040993   0.0035318
           19          20          21          22          23
    1   0.0028083   0.0019004   0.0010851   0.0007334   0.0001554
  
*** Unpaired Electrons
 Yamaguchi Nd:         3.99
 Head-Gordon Nu:       3.09
 Head-Gordon Nu_nl:    3.20
  
**************************************************
 RAS-CI total energy for state  14:   -203.873822944273
  Excitation energy (eV) =  9.724112539686
  State symmetry: A1    (C2v      )
  <S^2>      :  0.7500
  Dipole Moment:    0.0000 X     0.0000 Y     0.3938 Z
  Trans. Moment:    0.0000 X     0.0000 Y     0.0157 Z
  Strength   :  0.000059
  Natural transition orbitals ( 1 -> 14 ):
   e-/hole pair  1 alpha:  ampl =  0.305393 (  9.3%)   [9 : 10]
   e-/hole pair  2 alpha:  ampl =  0.190217 (  3.6%)   [8 : 11]
   e-/hole pair  1 beta :  ampl =  0.276653 (  7.7%)   [9 : 10]
   e-/hole pair  2 beta :  ampl =  0.136317 (  1.9%)   [8 : 11]
   Sum of square amplitudes: 0.23

 NATURAL OCCUPATION NUMBERS (higher than 1.0E-05)
            1           2           3           4           5           6
    1   1.9999999   1.9999998   1.9999998   1.9993384   1.9991232   1.9951670
            7           8           9          10          11          12
    1   1.9927996   1.9663380   1.5994800   1.5961792   1.4464126   1.3794737
           13          14          15          16          17          18
    1   0.9529687   0.0510832   0.0043901   0.0042822   0.0028401   0.0026076
           19          20          21          22          23
    1   0.0025886   0.0019176   0.0017768   0.0010038   0.0002302
Natural Orbitals stored in FCHK

  Amplitudes : 
  
 | HOLE  | ALPHA     | BETA      | PART  |    AMPLITUDE 
--------------------------------------------------
 |       | 111111000 | 111001100 |       |    -2.0143477090391E-01
 |       | 111111000 | 110110100 |       |    -2.6711948052001E-01
 |       | 111111000 | 101111000 |       |    -1.0279408583676E-01
 |       | 111110100 | 110111000 |       |    -5.6177581700728E-01
 |       | 111110010 | 111110000 |       |     1.6142557025660E-01
 |       | 111101100 | 111011000 |       |     2.6509196102362E-01
 |       | 111011100 | 111101000 |       |     4.6652673192856E-01
 |       | 111011100 | 110101100 |       |    -1.3118495039144E-01
 |       | 110111100 | 111110000 |       |    -2.9465633648687E-01
 |       | 101111100 | 110111000 |       |     1.6760812871611E-01
--------------------------------------------------
*** Contributions RASCI wfn    Active:  94.20
                                 Hole:   1.05
                                 Part:   4.75

      Mulliken population analysis 
 ---------------------------------------------------
   Atom    Charge (a.u.)   Spin (a.u.)  
 ---------------------------------------------------
   1  N    0.029140        0.618432 
   2  O   -0.014570        0.190784 
   3  O   -0.014570        0.190784 
 ---------------------------------------------------
   Sum:   -0.000000        1.000000 
 ---------------------------------------------------
 
  
 NATURAL OCCUPATION NUMBERS (higher than 1.0E-05)
            1           2           3           4           5           6
    1   1.9999999   1.9999998   1.9999998   1.9993384   1.9991232   1.9951670
            7           8           9          10          11          12
    1   1.9927996   1.9663380   1.5994800   1.5961792   1.4464126   1.3794737
           13          14          15          16          17          18
    1   0.9529687   0.0510832   0.0043901   0.0042822   0.0028401   0.0026076
           19          20          21          22          23
    1   0.0025886   0.0019176   0.0017768   0.0010038   0.0002302
  
*** Unpaired Electrons
 Yamaguchi Nd:         4.18
 Head-Gordon Nu:       3.05
 Head-Gordon Nu_nl:    3.21
  
**************************************************
 RAS-CI total energy for state  15:   -203.867613650626
  Excitation energy (eV) =  9.893076016397
  State symmetry: B1    (C2v      )
  <S^2>      :  0.7500
  Dipole Moment:    0.0000 X    -0.0000 Y    -0.0498 Z
  Trans. Moment:    0.0165 X    -0.0000 Y     0.0000 Z
  Strength   :  0.000066
  Natural transition orbitals ( 1 -> 15 ):
   e-/hole pair  1 alpha:  ampl =  0.020452 (  0.0%)   [9 : 10]
   e-/hole pair  2 alpha:  ampl =  0.017288 (  0.0%)   [8 : 11]
   e-/hole pair  1 beta :  ampl =  0.145569 (  2.1%)   [9 : 10]
   e-/hole pair  2 beta :  ampl =  0.045833 (  0.2%)   [8 : 11]
   Sum of square amplitudes: 0.02

 NATURAL OCCUPATION NUMBERS (higher than 1.0E-05)
            1           2           3           4           5           6
    1   1.9999999   1.9999997   1.9999997   1.9992574   1.9986833   1.9949306
            7           8           9          10          11          12
    1   1.9930789   1.9929160   1.9754148   1.9383919   1.8584981   1.0221880
           13          14          15          16          17          18
    1   0.1962391   0.0129605   0.0040498   0.0030513   0.0027140   0.0021097
           19          20          21          22          23
    1   0.0020726   0.0014457   0.0010845   0.0006916   0.0002227
Natural Orbitals stored in FCHK

  Amplitudes : 
  
 | HOLE  | ALPHA     | BETA      | PART  |    AMPLITUDE 
--------------------------------------------------
 |       | 111111000 | 011111000 |       |     1.0168181283667E-01
 |       | 111110100 | 111010100 |       |    -9.1094054489642E-01
 |       | 111110100 | 101011100 |       |    -1.3347345688707E-01
 |       | 111011100 | 101110100 |       |    -1.9319089036928E-01
 |       | 101111100 | 101011100 |       |    -1.5308986653011E-01
--------------------------------------------------
*** Contributions RASCI wfn    Active:  94.55
                                 Hole:   1.09
                                 Part:   4.37

      Mulliken population analysis 
 ---------------------------------------------------
   Atom    Charge (a.u.)   Spin (a.u.)  
 ---------------------------------------------------
   1  N    0.175914       -0.190149 
   2  O   -0.087957        0.595075 
   3  O   -0.087957        0.595075 
 ---------------------------------------------------
   Sum:   -0.000000        1.000000 
 ---------------------------------------------------
 
  
 NATURAL OCCUPATION NUMBERS (higher than 1.0E-05)
            1           2           3           4           5           6
    1   1.9999999   1.9999997   1.9999997   1.9992574   1.9986833   1.9949306
            7           8           9          10          11          12
    1   1.9930789   1.9929160   1.9754148   1.9383919   1.8584981   1.0221880
           13          14          15          16          17          18
    1   0.1962391   0.0129605   0.0040498   0.0030513   0.0027140   0.0021097
           19          20          21          22          23
    1   0.0020726   0.0014457   0.0010845   0.0006916   0.0002227
  
*** Unpaired Electrons
 Yamaguchi Nd:         1.89
 Head-Gordon Nu:       1.45
 Head-Gordon Nu_nl:    1.21
  
**************************************************
 RAS-CI total energy for state  16:   -203.855881289397
  Excitation energy (eV) = 10.212329808576
  State symmetry: B2    (C2v      )
  <S^2>      :  0.7500
  Dipole Moment:    0.0000 X    -0.0000 Y    -0.0592 Z
  Trans. Moment:    0.0000 X     0.0981 Y     0.0000 Z
  Strength   :  0.002408
  Natural transition orbitals ( 1 -> 16 ):
   e-/hole pair  1 alpha:  ampl =  0.523104 ( 27.4%)   [9 : 10]
   e-/hole pair  2 alpha:  ampl =  0.052888 (  0.3%)   [8 : 11]
   e-/hole pair  1 beta :  ampl =  0.613800 ( 37.7%)   [9 : 10]
   e-/hole pair  2 beta :  ampl =  0.054489 (  0.3%)   [8 : 11]
   Sum of square amplitudes: 0.66

 NATURAL OCCUPATION NUMBERS (higher than 1.0E-05)
            1           2           3           4           5           6
    1   1.9999999   1.9999997   1.9999997   1.9994068   1.9987745   1.9856613
            7           8           9          10          11          12
    1   1.9852882   1.9468529   1.8375325   1.6310749   1.3069699   1.1969226
           13          14          15          16          17          18
    1   1.0667546   0.0200103   0.0068748   0.0046845   0.0042101   0.0025468
           19          20          21          22          23
    1   0.0024319   0.0021077   0.0008728   0.0008155   0.0002081
Natural Orbitals stored in FCHK

  Amplitudes : 
  
 | HOLE  | ALPHA     | BETA      | PART  |    AMPLITUDE 
--------------------------------------------------
 |       | 111111000 | 101110100 |       |    -6.1046273007051E-01
 |       | 111110100 | 111110000 |       |     1.3459628785270E-01
 |       | 111110100 | 111001100 |       |     1.7542508605573E-01
 |       | 111110100 | 110110100 |       |     1.6253149346648E-01
 |       | 111110100 | 101111000 |       |    -1.1593960285275E-01
 |       | 111101100 | 111010100 |       |     2.8776881237753E-01
 |       | 111011100 | 111100100 |       |     1.1234372632234E-01
 |       | 111011100 | 111011000 |       |     2.8266229498477E-01
 |       | 101111100 | 111110000 |       |     4.9452312721930E-01
--------------------------------------------------
*** Contributions RASCI wfn    Active:  93.98
                                 Hole:   1.72
                                 Part:   4.29

      Mulliken population analysis 
 ---------------------------------------------------
   Atom    Charge (a.u.)   Spin (a.u.)  
 ---------------------------------------------------
   1  N    0.190760        0.438985 
   2  O   -0.095380        0.280508 
   3  O   -0.095380        0.280508 
 ---------------------------------------------------
   Sum:   -0.000000        1.000000 
 ---------------------------------------------------
 
  
 NATURAL OCCUPATION NUMBERS (higher than 1.0E-05)
            1           2           3           4           5           6
    1   1.9999999   1.9999997   1.9999997   1.9994068   1.9987745   1.9856613
            7           8           9          10          11          12
    1   1.9852882   1.9468529   1.8375325   1.6310749   1.3069699   1.1969226
           13          14          15          16          17          18
    1   1.0667546   0.0200103   0.0068748   0.0046845   0.0042101   0.0025468
           19          20          21          22          23
    1   0.0024319   0.0021077   0.0008728   0.0008155   0.0002081
  
*** Unpaired Electrons
 Yamaguchi Nd:         4.02
 Head-Gordon Nu:       3.09
 Head-Gordon Nu_nl:    3.20
  
**************************************************
 RAS-CI total energy for state  17:   -203.852386488781
  Excitation energy (eV) = 10.307428171789
  State symmetry: A1    (C2v      )
  <S^2>      :  0.7500
  Dipole Moment:    0.0000 X    -0.0000 Y    -0.2046 Z
  Trans. Moment:   -0.0000 X     0.0000 Y    -0.0606 Z
  Strength   :  0.000927
  Natural transition orbitals ( 1 -> 17 ):
   e-/hole pair  1 alpha:  ampl =  0.906484 ( 82.2%)   [9 : 10]
   e-/hole pair  2 alpha:  ampl =  0.034568 (  0.1%)   [8 : 11]
   e-/hole pair  1 beta :  ampl =  0.122732 (  1.5%)   [9 : 10]
   e-/hole pair  2 beta :  ampl =  0.107009 (  1.1%)   [8 : 11]
   Sum of square amplitudes: 0.85

 NATURAL OCCUPATION NUMBERS (higher than 1.0E-05)
            1           2           3           4           5           6
    1   1.9999998   1.9999997   1.9999995   1.9993222   1.9990732   1.9947960
            7           8           9          10          11          12
    1   1.9865449   1.9351595   1.9247503   1.8938019   1.8707412   0.9290680
           13          14          15          16          17          18
    1   0.2540846   0.1779446   0.0109877   0.0079559   0.0043050   0.0033018
           19          20          21          22          23
    1   0.0024073   0.0021260   0.0016839   0.0016291   0.0003177
Natural Orbitals stored in FCHK

  Amplitudes : 
  
 | HOLE  | ALPHA     | BETA      | PART  |    AMPLITUDE 
--------------------------------------------------
 |       | 111111000 | 110110100 |       |     1.1880380584395E-01
 |       | 111111000 | 101111000 |       |     1.0396689266960E-01
 |       | 111110100 | 110111000 |       |     1.0573188895391E-01
 |       | 111110010 | 111110000 |       |     8.3738392876774E-01
 |       | 111110010 | 101111000 |       |    -1.2707909296047E-01
 |       | 111011010 | 111011000 |       |    -1.3209746091502E-01
 |       | 101111010 | 111110000 |       |    -1.5343453256123E-01
 |       | 111110000 | 111110000 |  20   |    -1.0215769833890E-01
 |       | 111110000 | 111110000 |  22   |    -1.1770621194820E-01
--------------------------------------------------
*** Contributions RASCI wfn    Active:  90.41
                                 Hole:   1.31
                                 Part:   8.27

      Mulliken population analysis 
 ---------------------------------------------------
   Atom    Charge (a.u.)   Spin (a.u.)  
 ---------------------------------------------------
   1  N   -1.137807        2.115593 
   2  O    0.568903       -0.557796 
   3  O    0.568903       -0.557796 
 ---------------------------------------------------
   Sum:   -0.000000        1.000000 
 ---------------------------------------------------
 
  
 NATURAL OCCUPATION NUMBERS (higher than 1.0E-05)
            1           2           3           4           5           6
    1   1.9999998   1.9999997   1.9999995   1.9993222   1.9990732   1.9947960
            7           8           9          10          11          12
    1   1.9865449   1.9351595   1.9247503   1.8938019   1.8707412   0.9290680
           13          14          15          16          17          18
    1   0.2540846   0.1779446   0.0109877   0.0079559   0.0043050   0.0033018
           19          20          21          22          23
    1   0.0024073   0.0021260   0.0016839   0.0016291   0.0003177
  
*** Unpaired Electrons
 Yamaguchi Nd:         2.59
 Head-Gordon Nu:       1.79
 Head-Gordon Nu_nl:    1.43
  
**************************************************
 RAS-CI total energy for state  18:   -203.848101091455
  Excitation energy (eV) = 10.424039766026
  State symmetry: B1    (C2v      )
  <S^2>      :  0.7500
  Dipole Moment:   -0.0000 X    -0.0000 Y     0.2610 Z
  Trans. Moment:   -0.6560 X    -0.0000 Y     0.0000 Z
  Strength   :  0.109900
  Natural transition orbitals ( 1 -> 18 ):
   e-/hole pair  1 alpha:  ampl =  0.181965 (  3.3%)   [9 : 10]
   e-/hole pair  2 alpha:  ampl =  0.171302 (  2.9%)   [8 : 11]
   e-/hole pair  1 beta :  ampl =  0.844652 ( 71.3%)   [9 : 10]
   e-/hole pair  2 beta :  ampl =  0.195927 (  3.8%)   [8 : 11]
   Sum of square amplitudes: 0.87

 NATURAL OCCUPATION NUMBERS (higher than 1.0E-05)
            1           2           3           4           5           6
    1   1.9999998   1.9999998   1.9999996   1.9994223   1.9969707   1.9854098
            7           8           9          10          11          12
    1   1.9636275   1.9602011   1.9100807   1.8399842   1.7684307   1.2271175
           13          14          15          16          17          18
    1   0.2265807   0.0797286   0.0167013   0.0087025   0.0064497   0.0035969
           19          20          21          22          23
    1   0.0023645   0.0016183   0.0014361   0.0012233   0.0003545
Natural Orbitals stored in FCHK

  Amplitudes : 
  
 | HOLE  | ALPHA     | BETA      | PART  |    AMPLITUDE 
--------------------------------------------------
 |       | 111111000 | 111100100 |       |     1.9192045569421E-01
 |       | 111111000 | 111010010 |       |     1.4923438462614E-01
 |       | 111111000 | 011111000 |       |     8.4139421977900E-01
 |       | 111101100 | 111110000 |       |    -1.7874849456817E-01
 |       | 111011010 | 111110000 |       |    -1.4613707933260E-01
 |   6   | 111111000 | 111101100 |       |    -1.1198588542245E-01
 |   6   | 111101100 | 111111000 |       |    -1.5353887080072E-01
--------------------------------------------------
*** Contributions RASCI wfn    Active:  89.47
                                 Hole:   5.37
                                 Part:   5.16

      Mulliken population analysis 
 ---------------------------------------------------
   Atom    Charge (a.u.)   Spin (a.u.)  
 ---------------------------------------------------
   1  N    0.026502        0.305949 
   2  O   -0.013251        0.347026 
   3  O   -0.013251        0.347026 
 ---------------------------------------------------
   Sum:   -0.000000        1.000000 
 ---------------------------------------------------
 
  
 NATURAL OCCUPATION NUMBERS (higher than 1.0E-05)
[...]
    80    4.213062197970e-03
    81    8.093678276616e-17
    82    4.163140236957e-03
    83   -6.301595874862e-02
    84   -1.568540115487e-16
    85    6.745382532715e-02
    86   -2.402213705192e-16
    87   -2.091689784645e-04
    88    1.358329968026e-03
    89   -1.542610457330e-17
    90    7.963374537917e-04
    91   -8.604499957804e-17
    92   -2.755357111499e-03
    93    1.824978106316e-17
Sym=X
Ene= 0.872231
Spin=Alpha
Occup=0
     1    1.974323845720e-03
     2    8.022868252070e-03
     3   -2.473517924531e-01
     4    1.317489019347e+00
     5    8.497439998170e+00
     6    3.066759311250e-13
     7    1.663357874654e-15
     8    2.580375985327e-02
     9   -1.136539853357e-13
    10   -1.934699432429e-15
    11   -4.076839231995e-01
    12   -4.966445781334e-12
    13    5.888608721320e-18
    14   -2.186116603142e+00
    15   -2.845681457630e-03
    16    1.709439227388e-14
    17    3.207768462657e-16
    18    8.104477841707e-03
    19    6.950525456452e-17
    20   -3.531096657429e-01
    21    1.932809614311e-13
    22   -3.215130490321e-15
    23    2.877796108583e-01
    24   -3.502380766776e-15
    25    2.744950744878e-02
    26    3.783992121109e-15
    27   -2.536612457704e-16
    28   -3.555426791870e-02
    29    4.126121473823e-16
    30   -4.562839055484e-15
    31   -3.133022253570e-16
    32   -3.198800383932e-02
    33   -6.571148733340e-02
    34   -9.913611451576e-02
    35    1.759844775692e+00
    36   -6.484402217333e+00
    37    1.742025018241e-02
    38    7.627227274468e-16
    39   -4.548394997330e-03
    40   -3.075445412217e-01
    41   -1.104603891077e-15
    42   -1.704955279385e-01
    43   -2.117905421680e+00
    44   -1.466546979846e-15
    45   -5.366593546549e-01
    46   -4.393039170675e-03
    47    1.178528846057e-02
    48    1.091354079053e-17
    49    1.370522938139e-02
    50    2.972063673103e-17
    51   -7.005396427105e-03
    52   -5.738314992211e-02
    53   -3.233599000166e-16
    54   -1.676591135390e-01
    55   -7.233244139290e-16
    56    5.010200086476e-03
    57   -7.241856789133e-04
    58    6.159997218181e-17
    59   -9.737434061715e-03
    60   -1.088159343210e-16
    61   -1.085802936990e-02
    62   -1.851128164739e-16
    63   -3.198800383925e-02
    64   -6.571148733326e-02
    65   -9.913611451539e-02
    66    1.759844775688e+00
    67   -6.484402217320e+00
    68   -1.742025018224e-02
    69    1.745134220884e-15
    70   -4.548394997602e-03
    71    3.075445412218e-01
    72   -1.180426260461e-16
    73   -1.704955279390e-01
    74    2.117905421677e+00
    75    6.101187002251e-16
    76   -5.366593546519e-01
    77   -4.393039170673e-03
    78   -1.178528846055e-02
    79    5.584307043883e-16
    80    1.370522938137e-02
    81    4.560851834597e-16
    82   -7.005396427158e-03
    83    5.738314992190e-02
    84   -1.307870394736e-15
    85   -1.676591135388e-01
    86   -1.349197665298e-15
    87    5.010200086466e-03
    88    7.241856789140e-04
    89    1.468545652559e-16
    90   -9.737434061702e-03
    91   -4.403502387463e-16
    92    1.085802936989e-02
    93   -5.134771679217e-17
Sym=X
Ene= 0.984868
Spin=Alpha
Occup=0
     1   -5.591280062865e-15
     2   -2.103794248399e-14
     3    2.089729993694e-13
     4   -8.332752818015e-13
     5   -5.708062402036e-12
     6    1.847844159872e-01
     7    9.283339373663e-16
     8   -4.582155052932e-15
     9   -8.371609911378e-01
    10    7.429312776666e-16
    11    1.925884619099e-13
    12   -5.951799835783e+00
    13   -2.072194545520e-15
    14    1.427446181516e-12
    15    3.502241010043e-15
    16    1.482100806663e-02
    17    8.933310367669e-17
    18   -1.681591148973e-14
    19    7.407016460011e-17
    20    4.915569745041e-13
    21    3.967939964626e-01
    22   -6.054544111941e-16
    23    6.378076249496e-14
    24    2.096399415836e-15
    25   -1.892851760845e-14
    26    3.321839673969e-03
    27   -1.041021920206e-17
    28    1.767119637724e-14
    29   -2.918881417031e-16
    30   -3.776816643765e-02
    31    4.215973704289e-16
    32   -3.943183132070e-02
    33   -8.495196538302e-02
    34   -7.672165149204e-02
    35    2.024048518714e+00
    36   -7.841885140435e+00
    37    4.907803038133e-02
    38   -5.071702369307e-16
    39    7.151554172083e-02
    40   -2.620239123843e-01
    41    1.627786053638e-15
    42    3.408087993975e-02
    43   -2.009723825274e+00
    44   -8.345966838856e-17
    45   -1.606037762577e+00
    46   -5.385253802424e-03
    47    1.287511631807e-02
    48    1.086036357308e-16
    49    1.212105141807e-02
    50    7.437784566094e-17
    51    8.147786027785e-02
    52   -1.312087892503e-01
    53   -5.277087005646e-16
    54   -1.034384895384e-01
    55    2.966749727497e-16
    56    9.975381835758e-03
    57    3.344572862188e-03
    58   -6.641056851818e-17
    59   -1.259026746459e-02
    60    1.293677318820e-16
    61   -1.009555981963e-02
    62   -3.430418185229e-17
    63    3.943183132075e-02
    64    8.495196538313e-02
    65    7.672165149211e-02
    66   -2.024048518717e+00
    67    7.841885140443e+00
    68    4.907803038142e-02
    69    2.716220131259e-16
    70   -7.151554172079e-02
    71   -2.620239123844e-01
    72   -1.793578601441e-15
    73   -3.408087993956e-02
    74   -2.009723825277e+00
    75    1.100125325466e-15
    76    1.606037762578e+00
    77    5.385253802428e-03
    78    1.287511631809e-02
    79   -3.211831619957e-16
    80   -1.212105141808e-02
    81   -2.907667078784e-16
    82   -8.147786027774e-02
    83   -1.312087892502e-01
    84    9.392127983917e-16
    85    1.034384895387e-01
    86    1.690500409999e-15
    87   -9.975381835759e-03
    88    3.344572862182e-03
    89    1.493307793226e-17
    90    1.259026746460e-02
    91    1.646680840300e-17
    92   -1.009555981964e-02
    93   -4.726772237560e-16
Sym=X
Ene= 1.116304
Spin=Alpha
Occup=0
     1   -7.397886763024e-17
     2   -3.172587398638e-16
     3    4.291437160424e-15
     4   -9.361350560916e-15
     5   -2.281787448072e-14
     6    8.578902249125e-16
     7    5.052415217058e-02
     8    3.258088449044e-17
     9    6.593683626111e-15
    10    6.809074643639e-02
    11    3.714269061567e-16
    12    1.812716811874e-15
    13   -5.524883707519e-01
    14    1.141420510694e-14
    15   -2.117526484834e-16
    16   -4.460500912780e-18
    17   -7.177585770962e-03
    18    4.237249032582e-16
    19    6.789326040368e-16
    20   -1.162992093461e-14
    21   -5.430238418289e-15
    22    9.094069246119e-01
    23   -6.681355453185e-15
    24   -7.836343201674e-15
    25    2.966324578370e-16
    26    2.256909190452e-16
    27   -1.062623013266e-02
    28   -2.029360648397e-16
    29   -1.762808750017e-16
    30    3.398666910991e-16
    31   -3.543177631507e-03
    32   -3.272225240908e-18
    33   -1.323892960095e-16
    34    1.603517481788e-16
    35    2.092176355527e-15
    36    2.073889424362e-14
    37    1.251746423020e-15
    38    2.128487461669e-02
    39   -1.126377989661e-16
    40    7.778893100384e-15
    41    7.306580637453e-02
    42   -9.142827943944e-16
    43    5.064049799807e-15
    44    3.274262958254e-01
    45   -4.602882102086e-17
    46    9.586086635994e-17
    47    2.451541701321e-16
    48   -3.103066155316e-03
    49    3.058663509224e-17
    50   -8.478461008454e-03
    51   -2.173976015030e-15
    52    1.883550167645e-15
    53    1.734743111892e-01
    54   -1.513750971818e-15
    55   -1.042618734634e-01
    56   -2.192980898386e-17
    57   -1.449069672214e-16
    58    1.817868814630e-03
    59    2.196251202727e-17
    60    9.057980624065e-03
    61    7.527346110905e-17
    62    6.479239169621e-03
    63   -3.232444290929e-17
    64   -2.105202067698e-16
    65    3.315813997322e-15
    66   -1.130964130133e-14
    67    1.808361699537e-14
    68   -1.454466635239e-15
    69    2.128487461669e-02
    70   -1.155321156399e-15
    71    1.933247131128e-15
    72    7.306580637453e-02
    73   -1.809823243737e-15
    74   -5.300364539374e-15
    75    3.274262958254e-01
    76    6.018665321412e-17
    77   -1.322224494157e-16
    78   -7.054021226291e-17
    79   -3.103066155316e-03
    80    5.936683772150e-18
    81    8.478461008454e-03
    82   -1.285128728670e-15
    83   -1.292961173618e-15
    84    1.734743111892e-01
    85   -1.829213507480e-15
    86    1.042618734634e-01
    87    1.422223781419e-16
    88    7.193862774371e-17
    89    1.817868814630e-03
    90   -3.950615220786e-17
    91   -9.057980624065e-03
    92    1.841655160227e-16
    93    6.479239169621e-03
Sym=X
Ene= 1.199634
Spin=Alpha
Occup=0
     1   -3.687874143946e-03
     2   -8.730691681123e-03
     3   -1.317390982283e-01
     4    7.312878086907e-01
     5    5.069884442402e+00
     6   -2.859757285419e-14
     7    2.464647869405e-15
     8    4.316613877896e-02
     9    3.828215907176e-13
    10   -7.617349215764e-16
    11   -1.956499601780e-01
    12    2.001484582624e-12
    13   -1.119631395469e-14
    14   -1.925428644312e+00
    15    2.400598955674e-03
    16   -4.468931353313e-15
    17    2.835663545992e-16
    18   -7.091275211389e-03
    19   -1.726566959872e-16
    20    6.660550596146e-01
    21   -1.892646458651e-13
    22    1.309304160206e-14
    23    6.970564846897e-01
    24   -1.707861747188e-14
    25    1.242870604672e-02
    26    9.733106760885e-16
    27   -3.275640183435e-16
    28   -3.396010659888e-02
    29    1.480855547152e-16
    30    2.162602216061e-14
    31   -2.442141013751e-16
    32   -1.257808772534e-02
    33   -2.867699188081e-02
    34    1.785919225879e-02
    35    5.463931083303e-01
    36   -3.587158207935e+00
    37   -2.908076147948e-02
    38   -1.193672400282e-15
    39    3.418867873777e-02
    40   -3.210318922065e-01
    41   -5.314998927512e-15
    42   -7.408773116363e-02
    43   -1.239270269180e+00
    44    6.641247070511e-15
    45    5.599429472178e-02
    46   -5.525121343970e-03
    47   -2.289182382420e-03
    48   -2.249603437235e-17
    49    8.201150110420e-03
    50    3.680432398488e-17
    51    1.019551408497e-01
    52   -1.855163258648e-01
    53    5.311792069377e-15
    54    6.084771717129e-02
    55   -1.226815592891e-15
    56    6.559934107277e-03
    57    8.845166768193e-03
    58    1.645598533877e-17
    59   -4.658800773998e-03
    60    5.206325462486e-17
    61   -6.626033600135e-03
    62   -7.997404757620e-17
    63   -1.257808772537e-02
    64   -2.867699188088e-02
    65    1.785919225893e-02
    66    5.463931083312e-01
    67   -3.587158207940e+00
    68    2.908076147946e-02
    69    3.179485235914e-15
    70    3.418867873779e-02
    71    3.210318922068e-01
    72    6.233403997463e-15
    73   -7.408773116367e-02
    74    1.239270269182e+00
    75    7.360298719931e-15
    76    5.599429472076e-02
    77   -5.525121343976e-03
    78    2.289182382413e-03
    79    2.216844663270e-16
    80    8.201150110426e-03
    81    6.298348266259e-16
    82    1.019551408498e-01
    83    1.855163258649e-01
    84   -8.378808518870e-16
    85    6.084771717124e-02
    86    1.389563919065e-15
    87    6.559934107284e-03
    88   -8.845166768196e-03
    89    2.622709318816e-16
    90   -4.658800774006e-03
    91   -4.199124274302e-16
    92    6.626033600143e-03
    93    6.272289156453e-17
Sym=X
Ene= 1.292448
Spin=Alpha
Occup=0
     1   -4.224750321446e-16
     2   -1.239292590410e-15
     3   -2.263775962001e-15
     4    2.953815884440e-14
     5    1.325944518272e-13
     6   -2.301561587037e-16
     7   -1.448671944178e-15
     8   -3.786646239445e-16
     9    8.081840473377e-15
    10    2.367718778472e-15
    11   -8.471679734708e-15
    12    1.330805566287e-14
    13   -7.699214786813e-15
    14   -4.816852092814e-14
    15   -7.777196162197e-17
    16   -1.178096146148e-16
    17    4.610665301526e-16
    18   -2.056289601003e-16
    19    7.941262565511e-03
    20    4.399600854803e-15
    21   -7.058277526013e-15
    22    1.130003134362e-14
    23    2.470672854118e-14
    24    9.549793849093e-01
    25    9.519487298874e-16
    26    1.467165260314e-16
    27   -8.146066401035e-16
    28   -1.654519790488e-15
    29    1.116269287123e-03
    30    4.165976643561e-16
    31   -1.356828192204e-15
    32   -1.988287446276e-16
    33   -4.380905987571e-16
    34    6.833086589323e-16
    35    6.872291072015e-15
    36   -7.766603004011e-14
    37   -5.285236698876e-16
    38    1.189232910846e-01
    39   -1.782500807500e-16
    40   -8.998977402772e-15
    41    3.099655836284e-01
    42   -7.064601909229e-15
    43   -2.744500440729e-14
    44    4.585271187340e-02
    45    3.843999477647e-15
    46    3.619734101848e-17
    47    8.476107935361e-17
    48   -6.476514102734e-03
    49    4.303167661090e-17
    50   -1.865192300879e-02
    51    2.976517343908e-15
    52   -5.476809788818e-15
    53   -2.026096000746e-01
    54    1.668839394730e-15
    55   -6.487476310806e-02
    56    2.610789572428e-16
    57    2.658636031115e-17
    58   -3.721771291914e-03
    59   -2.899001615742e-16
    60    6.609539274419e-03
    61   -3.868766367700e-16
    62    1.601490402949e-02
    63   -4.241978207665e-16
    64   -1.249911146969e-15
    65    5.360220102038e-15
    66   -1.867256429310e-15
    67   -1.063801564880e-13
    68   -7.978051372440e-16
    69   -1.189232910846e-01
    70   -2.305102017441e-16
    71    1.975187028683e-14
    72   -3.099655836284e-01
    73   -7.089633834467e-15
    74    3.468822567865e-14
    75   -4.585271187339e-02
    76   -2.682862932795e-15
    77   -5.216558865925e-17
    78   -3.763452877598e-17
    79    6.476514102733e-03
    80    2.911274420062e-16
    81   -1.865192300879e-02
    82    2.307646252925e-15
    83    5.390249595605e-15
    84    2.026096000746e-01
    85   -2.150220444434e-15
    86   -6.487476310805e-02
    87    4.353208187265e-16
    88   -2.328935149261e-16
    89    3.721771291914e-03
    90   -2.724768794217e-16
    91    6.609539274419e-03
    92    3.911039984293e-16
    93   -1.601490402949e-02
Sym=X
Ene= 1.522286
Spin=Alpha
Occup=0
     1    3.194381780834e-15
     2    6.900245766611e-15
     3    1.992102469108e-13
     4   -9.026778014499e-13
     5   -4.331043243877e-13
     6    2.726549246878e-01
     7   -2.487597319766e-15
     8    2.716039793911e-15
     9    1.078561561806e+00
    10    2.773339321738e-15
    11    2.935682327863e-13
    12    1.734696882568e+00
    13    2.016275330940e-17
    14    9.771651808401e-14
    15   -3.428236701513e-16
    16    1.309928655489e-02
    17    3.902679577723e-17
    18    5.411807293279e-16
    19   -5.228342125811e-16
    20    1.852282876028e-13
    21   -1.344562136662e+00
    22   -2.440281479976e-15
    23   -3.994093964887e-13
    24   -1.758652644617e-15
    25   -2.783767670919e-14
    26   -3.853775264721e-03
    27    1.461227919680e-16
    28    4.133164380502e-14
    29   -2.084639602297e-16
    30    3.820747366362e-02
    31    8.972139032983e-17
    32   -6.033180921409e-03
    33   -8.725678081526e-03
    34   -1.643261973061e-01
    35    1.040977267935e+00
    36    1.297761860357e+00
    37    9.097759626392e-02
    38   -1.307016712204e-15
    39   -2.833448351261e-02
    40    8.997238593817e-01
    41    4.633684843619e-16
    42    1.013205531892e-01
    43    3.830954293426e-03
    44   -1.805153433825e-15
    45    2.510200223677e-01
    46    9.818185972558e-03
    47    4.415028240183e-03
    48   -7.318841311610e-17
    49   -1.529641729262e-02
    50   -3.727275844766e-17
    51    2.937513059492e-01
    52   -7.052898397104e-02
    53    3.037750969787e-15
    54    2.752834339313e-01
    55    9.598484544906e-17
    56    4.778487001189e-03
    57   -1.393323325451e-02
    58    2.032112254576e-17
    59   -2.478348690162e-03
    60    4.574366113473e-17
    61    1.585961213680e-02
    62   -2.674764801229e-18
    63    6.033180921408e-03
    64    8.725678081535e-03
    65    1.643261973059e-01
    66   -1.040977267934e+00
    67   -1.297761860357e+00
    68    9.097759626391e-02
    69   -1.964543286498e-15
    70    2.833448351262e-02
    71    8.997238593811e-01
    72    1.436219723871e-15
    73   -1.013205531888e-01
    74    3.830954293232e-03
    75    1.992647535659e-16
    76   -2.510200223677e-01
    77   -9.818185972560e-03
    78    4.415028240190e-03
    79   -2.988020687891e-16
    80    1.529641729262e-02
    81    1.733982100096e-16
    82   -2.937513059493e-01
    83   -7.052898397120e-02
    84   -2.401839695925e-15
    85   -2.752834339311e-01
    86   -5.101017567644e-16
    87   -4.778487001204e-03
    88   -1.393323325451e-02
    89    5.060219158834e-16
    90    2.478348690182e-03
    91    4.706588766781e-16
    92    1.585961213679e-02
    93   -1.781218589376e-16
Sym=X
Ene= 1.633677
Spin=Alpha
Occup=0
     1   -5.305476052914e-02
     2   -1.619566502396e-01
     3    7.015543454514e-01
     4   -6.324387432060e-01
     5    1.747602899776e+00
     6    4.538514785263e-14
     7   -2.067903997107e-15
     8   -2.079998365167e-01
     9   -2.140959975458e-13
    10    9.766772178228e-16
    11   -2.121480302042e-01
    12    2.831793396222e-13
    13    2.806820100506e-16
    14   -6.157413814807e-01
    15   -1.759710280169e-03
    16    5.526367912230e-17
    17   -7.159721745102e-16
    18   -1.457004761991e-02
    19   -2.503200700239e-16
    20   -5.987405170326e-01
    21   -5.723420014542e-15
    22    1.053987749924e-15
    23    1.069767577169e+00
    24   -6.885627525084e-15
    25    1.079228753423e-02
    26    9.004891044826e-16
    27    7.950839985917e-17
    28   -3.491573757309e-02
    29   -5.750275633410e-16
    30   -1.290733900085e-14
    31   -9.592448350371e-16
    32    7.059712082405e-03
    33    1.425004097796e-02
    34    8.997509210970e-02
    35   -8.528401803057e-01
    36   -5.312456954134e-01
    37   -4.957711472945e-02
    38    1.163850482474e-16
    39   -1.103716732453e-01
    40   -4.944907813895e-01
    41   -2.654016184114e-15
    42   -4.407554184422e-01
    43    4.040555794484e-02
    44   -8.107319914088e-16
    45    2.480909027665e-01
    46    4.460949478123e-03
    47    1.470761520081e-02
    48   -2.043971100752e-16
    49    3.528603505224e-05
    50   -1.360740582178e-16
    51    2.826001449322e-01
    52    9.024651149986e-02
    53    2.666257214071e-16
    54    1.259016141443e-01
    55    1.862836104110e-15
    56    1.805170317463e-03
    57   -1.117141852908e-02
    58    1.153131241795e-16
    59   -1.921621123465e-03
    60    6.073335199520e-17
    61    1.020748113835e-02
    62    2.744635888236e-17
    63    7.059712082404e-03
    64    1.425004097796e-02
    65    8.997509210965e-02
    66   -8.528401803055e-01
    67   -5.312456954138e-01
    68    4.957711472947e-02
    69   -7.222082079632e-16
    70   -1.103716732453e-01
    71    4.944907813894e-01
    72    3.700346114231e-15
    73   -4.407554184421e-01
    74   -4.040555794482e-02
    75    9.221497293845e-17
    76    2.480909027664e-01
    77    4.460949478122e-03
    78   -1.470761520080e-02
    79    1.985510089739e-16
    80    3.528603505171e-05
    81   -9.027160348375e-17
    82    2.826001449321e-01
    83   -9.024651149992e-02
    84   -1.071046980226e-15
    85    1.259016141443e-01
    86   -9.153564305682e-16
    87    1.805170317456e-03
    88    1.117141852908e-02
    89    8.392850184417e-16
    90   -1.921621123457e-03
    91   -2.333273234826e-16
    92   -1.020748113836e-02
    93    9.974137863306e-17
[5D7F]

======= END OF MOLDEN-FORMATTED INPUT FILE =======


        *************************************************************
        *                                                           *
        *  Thank you very much for using Q-Chem.  Have a nice day.  *
        *                                                           *
        *************************************************************


