
                                 *****************
                                 * O   R   C   A *
                                 *****************

                                            #,                                       
                                            ###                                      
                                            ####                                     
                                            #####                                    
                                            ######                                   
                                           ########,                                 
                                     ,,################,,,,,                         
                               ,,#################################,,                 
                          ,,##########################################,,             
                       ,#########################################, ''#####,          
                    ,#############################################,,   '####,        
                  ,##################################################,,,,####,       
                ,###########''''           ''''###############################       
              ,#####''   ,,,,##########,,,,          '''####'''          '####       
            ,##' ,,,,###########################,,,                        '##       
           ' ,,###''''                  '''############,,,                           
         ,,##''                                '''############,,,,        ,,,,,,###''
      ,#''                                            '''#######################'''  
     '                                                          ''''####''''         
             ,#######,   #######,   ,#######,      ##                                
            ,#'     '#,  ##    ##  ,#'     '#,    #''#        ,####,   ,####,        
            ##       ##  ##   ,#'  ##            #'  '#       #'       #'  '#        
            ##       ##  #######   ##           ,######,      #####,   #    #        
            '#,     ,#'  ##    ##  '#,     ,#' ,#      #,     #,   #   #,  ,#        
             '#######'   ##     ##  '#######'  #'      '#     '####' # '####'        



                #########################################################
                #                        -***-                          #
                #          Department of theory and spectroscopy        #
                #                                                       #
                #                      Frank Neese                      #
                #                                                       #
                #     Directorship, Architecture, Infrastructure        #
                #                    SHARK, DRIVERS                     #
                #        Core code/Algorithms in most modules           #
                #                                                       #
                #        Max Planck Institute fuer Kohlenforschung      #
                #                Kaiser Wilhelm Platz 1                 #
                #                 D-45470 Muelheim/Ruhr                 #
                #                      Germany                          #
                #                                                       #
                #                  All rights reserved                  #
                #                        -***-                          #
                #########################################################


                         Program Version 6.0.0  -   RELEASE  -


 With contributions from (in alphabetic order):
   Daniel Aravena         : Magnetic Suceptibility
   Michael Atanasov       : Ab Initio Ligand Field Theory (pilot matlab implementation)
   Alexander A. Auer      : GIAO ZORA, VPT2 properties, NMR spectrum
   Ute Becker             : All parallelization in ORCA, NUMFREQ, NUMCALC
   Giovanni Bistoni       : ED, misc. LED, open-shell LED, HFLD
   Martin Brehm           : Molecular dynamics
   Dmytro Bykov           : pre 5.0 version of the SCF Hessian
   Marcos Casanova-Páez   : Triplet and SCS-CIS(D). UHF-(DLPNO)-IP/EA/STEOM-CCSD. UHF-CVS-IP/STEOM-CCSD
   Vijay G. Chilkuri      : MRCI spin determinant printing, contributions to CSF-ICE
   Pauline Colinet        : FMM embedding
   Dipayan Datta          : RHF DLPNO-CCSD density
   Achintya Kumar Dutta   : EOM-CC, STEOM-CC
   Nicolas Foglia         : Exact transition moments, OPA infrastructure, MCD improvements
   Dmitry Ganyushin       : Spin-Orbit,Spin-Spin,Magnetic field MRCI
   Miquel Garcia          : C-PCM and meta-GGA Hessian, CCSD/C-PCM, Gaussian charge scheme
   Tiago L. C. Gouveia    : GS-ROHF, GS-ROCIS
   Yang Guo               : DLPNO-NEVPT2, F12-NEVPT2, CIM, IAO-localization
   Andreas Hansen         : Spin unrestricted coupled pair/coupled cluster methods
   Ingolf Harden          : AUTO-CI MPn and infrastructure 
   Benjamin Helmich-Paris : MC-RPA, TRAH-(SCF,CASSCF), AVAS, COSX integrals, SCF dyn. polar.
   Lee Huntington         : MR-EOM, pCC
   Robert Izsak           : Overlap fitted RIJCOSX, COSX-SCS-MP3, EOM
   Riya Kayal             : Wick's Theorem for AUTO-CI, AUTO-CI UHF-CCSDT
   Emily Kempfer          : AUTO-CI, RHF CISDT and CCSDT
   Christian Kollmar      : KDIIS, OOCD, Brueckner-CCSD(T), CCSD density, CASPT2, CASPT2-K, improved NEVPT2
   Axel Koslowski         : Symmetry handling
   Simone Kossmann        : Meta GGA functionals, TD-DFT gradient, OOMP2, (MP2 Hessian; deprecated post 5.0)
   Lucas Lang             : DCDCAS
   Marvin Lechner         : AUTO-CI (C++ implementation), FIC-MRCC
   Spencer Leger          : CASSCF response
   Dagmar Lenk            : GEPOL surface, SMD, ORCA-2-JSON
   Dimitrios Liakos       : Extrapolation schemes; Compound Job, initial MDCI parallelization
   Dimitrios Manganas     : Further ROCIS development; embedding schemes. LFT, Crystal Embedding
   Dimitrios Pantazis     : SARC Basis sets
   Anastasios Papadopoulos: AUTO-CI, single reference methods and gradients
   Taras Petrenko         : pre 6.0 DFT Hessian and TD-DFT gradient, (ASA, deprecated), ECA, 1-Electron XAS/XES, NRVS
   Peter Pinski           : DLPNO-MP2, DLPNO-MP2 Gradient
   Christoph Reimann      : Effective Core Potentials
   Marius Retegan         : Local ZFS, SOC
   Christoph Riplinger    : Optimizer, TS searches, QM/MM, DLPNO-CCSD(T), (RO)-DLPNO pert. Triples
   Michael Roemelt        : Original ROCIS implementation
   Masaaki Saitow         : Open-shell DLPNO-CCSD energy and density
   Barbara Sandhoefer     : DKH picture change effects
   Kantharuban Sivalingam : CASSCF convergence/infrastructure, NEVPT2 and variants, FIC-MRCI
   Bernardo de Souza      : ESD, SOC TD-DFT
   Georgi Stoychev        : AutoAux, RI-MP2 NMR, DLPNO-MP2 response, X2C
   Van Anh Tran           : RI-MP2 g-tensors
   Willem Van den Heuvel  : Paramagnetic NMR
   Zikuan Wang            : NOTCH, Electric field optimization 
   Frank Wennmohs         : Technical directorship and infrastructure
   Hang Xu                : AUTO-CI-Response properties 


 We gratefully acknowledge several colleagues who have allowed us to
 interface, adapt or use parts of their codes:
   Stefan Grimme, W. Hujo, H. Kruse, P. Pracht,  : VdW corrections, initial TS optimization,
                  C. Bannwarth, S. Ehlert,         DFT functionals, gCP, sTDA/sTD-DF
                  L. Wittmann, M. Mueller
   Ed Valeev, F. Pavosevic, A. Kumar             : LibInt (2-el integral package), F12 methods
   Garnet Chan, S. Sharma, J. Yang, R. Olivares  : DMRG
   Ulf Ekstrom                                   : XCFun DFT Library
   Mihaly Kallay                                 : mrcc  (arbitrary order and MRCC methods)
   Frank Weinhold                                : gennbo (NPA and NBO analysis)
   Simon Mueller                                 : openCOSMO-RS
   Christopher J. Cramer and Donald G. Truhlar   : smd solvation model
   Lars Goerigk                                  : TD-DFT with DH, B97 family of functionals
   V. Asgeirsson, H. Jonsson                     : NEB implementation
   FAccTs GmbH                                   : IRC, NEB, NEB-TS, DLPNO-Multilevel, CI-OPT
                                                   MM, QMMM, 2- and 3-layer-ONIOM, Crystal-QMMM,
                                                   LR-CPCM, SF, NACMEs, symmetry and pop. for TD-DFT,
                                                   nearIR, NL-DFT gradient (VV10), updates on ESD,
                                                   ML-optimized integration grids, MBIS, APM,
                                                   GOAT, DOCKER, SOLVATOR, interface openCOSMO-RS
   S Lehtola, MJT Oliveira, MAL Marques          : LibXC Library
   Liviu Ungur et al                             : ANISO software


 Your calculation uses the libint2 library for the computation of 2-el integrals
 For citations please refer to: http://libint.valeyev.net

 Your ORCA version has been built with support for libXC version: 6.2.2
 For citations please refer to: https://libxc.gitlab.io

 This ORCA versions uses:
   CBLAS   interface :  Fast vector & matrix operations
   LAPACKE interface :  Fast linear algebra routines
   SCALAPACK package :  Parallel linear algebra routines
   Shared memory     :  Shared parallel matrices
   BLAS/LAPACK       :  OpenBLAS 0.3.27  USE64BITINT DYNAMIC_ARCH NO_AFFINITY SkylakeX SINGLE_THREADED
        Core in use  :  SkylakeX
   Copyright (c) 2011-2014, The OpenBLAS Project




************************************
The Z-Matrix will be read from file: cdh.gzmt
************************************


BuildBasisSet found the ANOflag in the standard basis to be TRUE and will set the global ANO flag
================================================================================

----- Orbital basis set information -----
Your calculation utilizes the basis: ANO-RCC-TZP
   H, He:       P.-O. Widmark, P.-A. Malmqvist, and B. O. Roos, Theor. Chim. Acta 77, 291 (1990).
   s block:     B. O. Roos, V. Veryazov and P.-O. Widmark, Theor. Chem. Acc. 111, 345 (2004).
   p block:     B. O. Roos, R. Lindh, P.-A. Malmqvist, V. Veryazov, and P.-O. Widmark, J. Phys. Chem. A 108, 2851 (2004).
   d block:     B. O. Roos, R. Lindh, P.-A. Malmqvist, V. Veryazov, and P.-O. Widmark, J. Phys. Chem. A 109, 6575 (2005).
   actinides:   B. O. Roos, R. Lindh, P.-A. Malmqvist, V. Veryazov, and P.-O. Widmark, Chem. Phys. Letters 409, 295 (2005).
   lanthanides: B. O. Roos, R. Lindh, P.-A. Malmqvist, V. Veryazov, P.-O. Widmark and A. C. Borin, J. Phys. Chem. A 112, 11431 (2008).

================================================================================
                                        WARNINGS
                       Please study these warnings very carefully!
================================================================================


WARNING: your system is open-shell and RHF/RKS was chosen
  ===> : WILL SWITCH to UHF/UKS


================================================================================
                                       INPUT FILE
================================================================================
NAME = cdh_cpks.inp
|  1> !B3LYP ANO-RCC-TZP SOMF(1X) LARGEPRINT PrintMOs
|  2> 
|  3> %METHOD
|  4>  Functional B3LYP_G
|  5>  RI false
|  6> END
|  7> 
|  8> %SCF
|  9>  MaxIter 500			# Max. no. of SCF iterations
| 10>  Thresh 1e-12			# Threshold for neglecting integrals
| 11>  TolE 1e-8			# Energy convergence threshold
| 12> END
| 13> 
| 14> %EPRNMR 			# Control of EPR and NMR calculations
| 15>  gtensor 1			# Calculate the g-tensor 
| 16>  ori CenterOfNucCharge		# origin for magnetic properties: CenterOfElCharge, CenterOfNucCharge
| 17>  printlevel 4			# detailed information
| 18> END
| 19> 
| 20> * gzmtfile 0 2 cdh.gzmt 	# Coordinates
| 21> 
| 22> 
| 23>                          ****END OF INPUT****
================================================================================

                       ****************************
                       * Single Point Calculation *
                       ****************************

---------------------------------
CARTESIAN COORDINATES (ANGSTROEM)
---------------------------------
  H      0.000000    0.000000    0.000000
  Cd     1.781000    0.000000    0.000000

----------------------------
CARTESIAN COORDINATES (A.U.)
----------------------------
  NO LB      ZA    FRAG     MASS         X           Y           Z
   0 H     1.0000    0     1.008    0.000000    0.000000    0.000000
   1 Cd   48.0000    0   112.410    3.365602    0.000000    0.000000

--------------------------------
INTERNAL COORDINATES (ANGSTROEM)
--------------------------------
 H      0   0   0     0.000000000000     0.00000000     0.00000000
 Cd     1   0   0     1.781000000000     0.00000000     0.00000000

---------------------------
INTERNAL COORDINATES (A.U.)
---------------------------
 H      0   0   0     0.000000000000     0.00000000     0.00000000
 Cd     1   0   0     3.365602244514     0.00000000     0.00000000

---------------------
BASIS SET INFORMATION
---------------------
There are 2 groups of distinct atoms

 Group   1 Type H   : 32s12p6d contracted to 4s3p2d pattern {8888/444/33}
 Group   2 Type Cd  : 147s114p52d12f4g contracted to 7s6p4d2f1g pattern {21212121212121/191919191919/13131313/66/4}

Atom   0H    basis set group =>   1
Atom   1Cd   basis set group =>   2

-------------------------
BASIS SET IN INPUT FORMAT
-------------------------

 # Basis set for element : H 
 NewGTO H 
 S 8 
   1     188.6144500000      0.0009638500
   2      28.2765960000      0.0074919600
   3       6.4248300000      0.0375954101
   4       1.8150410000      0.1433949804
   5       0.5910630000      0.3486363010
   6       0.2121490000      0.4382973612
   7       0.0798910000      0.1651066105
   8       0.0279620000      0.0210228701
 S 8 
   1     188.6144500000     -0.0013119000
   2      28.2765960000     -0.0103451000
   3       6.4248300000     -0.0504952998
   4       1.8150410000     -0.2073854991
   5       0.5910630000     -0.4350884981
   6       0.2121490000     -0.0247296999
   7       0.0798910000      0.3225259886
   8       0.0279620000      0.7072753770
 S 8 
   1     188.6144500000      0.0024224000
   2      28.2765960000      0.0203381700
   3       6.4248300000      0.0896393498
   4       1.8150410000      0.4422907090
   5       0.5910630000      0.5757143887
   6       0.2121490000     -0.9802889977
   7       0.0798910000     -0.6721537984
   8       0.0279620000      1.1417684974
 S 8 
   1     188.6144500000     -0.0115701006
   2      28.2765960000     -0.0837154045
   3       6.4248300000     -0.4451663240
   4       1.8150410000     -1.1462710617
   5       0.5910630000      2.5031872348
   6       0.2121490000     -1.5828490853
   7       0.0798910000      0.0309656917
   8       0.0279620000      0.3086286566
 P 4 
   1       2.3050000000      0.1127901896
   2       0.8067500000      0.4185075284
   3       0.2823620000      0.4700077282
   4       0.0988270000      0.1826260293
 P 4 
   1       2.3050000000     -0.2108687968
   2       0.8067500000     -0.5943795909
   3       0.2823620000      0.0896888786
   4       0.0988270000      0.8611633869
 P 4 
   1       2.3050000000      0.7599500731
   2       0.8067500000      0.1646158920
   3       0.2823620000     -1.3710139334
   4       0.0988270000      1.0593154486
 D 3 
   1       1.8190000000      0.2705134090
   2       0.7276000000      0.5510124980
   3       0.2910400000      0.3310866388
 D 3 
   1       1.8190000000     -0.7938035094
   2       0.7276000000     -0.0914252011
   3       0.2910400000      0.8620033502
  end;

 # Basis set for element : Cd
 NewGTO Cd
 S 21 
   1  27563063.3000000007      0.0002520300
   2  4023923.8900000001      0.0007077800
   3  831028.2800000000      0.0019770500
   4  209117.0700000000      0.0049912500
   5   60794.2054000000      0.0122097700
   6   19739.6940000000      0.0294465099
   7    6994.0092400000      0.0705110197
   8    2653.3341300000      0.1605333794
   9    1060.8157200000      0.3076011688
  10     442.5934590000      0.3820630285
  11     190.5856560000      0.1930846392
  12      81.1318646000      0.0133563099
  13      36.8534197000      0.0021547200
  14      17.0183020000     -0.0017499900
  15       7.9010589100      0.0011129800
  16       3.5984880400     -0.0006660500
  17       1.5701749400      0.0003419900
  18       0.6292505900     -0.0001547100
  19       0.2236171400      0.0000756300
  20       0.0894468600     -0.0000385100
  21       0.0357787400      0.0000114500
 S 21 
   1  27563063.3000000007     -0.0000857700
   2  4023923.8900000001     -0.0002412100
   3  831028.2800000000     -0.0006753500
   4  209117.0700000000     -0.0017136500
   5   60794.2054000000     -0.0042261100
   6   19739.6940000000     -0.0103662101
   7    6994.0092400000     -0.0255577002
   8    2653.3341300000     -0.0620757604
   9    1060.8157200000     -0.1355440109
  10     442.5934590000     -0.2218685714
  11     190.5856560000     -0.1190853108
  12      81.1318646000      0.4213757428
  13      36.8534197000      0.6155585640
  14      17.0183020000      0.1419601709
  15       7.9010589100      0.0068391500
  16       3.5984880400     -0.0020172500
  17       1.5701749400      0.0011062900
  18       0.6292505900     -0.0006395600
  19       0.2236171400      0.0003121800
  20       0.0894468600     -0.0001619900
  21       0.0357787400      0.0000479400
 S 21 
   1  27563063.3000000007      0.0000375200
   2  4023923.8900000001      0.0001055300
   3  831028.2800000000      0.0002955700
   4  209117.0700000000      0.0007505100
   5   60794.2054000000      0.0018530900
   6   19739.6940000000      0.0045561600
   7    6994.0092400000      0.0112819000
   8    2653.3341300000      0.0276585600
   9    1060.8157200000      0.0616224801
  10     442.5934590000      0.1053823301
  11     190.5856560000      0.0598975601
  12      81.1318646000     -0.2901447303
  13      36.8534197000     -0.6263117907
  14      17.0183020000      0.0740628001
  15       7.9010589100      0.9179689310
  16       3.5984880400      0.2975739003
  17       1.5701749400     -0.0040807300
  18       0.6292505900      0.0056765700
  19       0.2236171400     -0.0021827700
  20       0.0894468600      0.0011071900
  21       0.0357787400     -0.0003236100
 S 21 
   1  27563063.3000000007     -0.0000158900
   2  4023923.8900000001     -0.0000446900
   3  831028.2800000000     -0.0001252000
   4  209117.0700000000     -0.0003177600
   5   60794.2054000000     -0.0007856700
   6   19739.6940000000     -0.0019286300
   7    6994.0092400000     -0.0047958900
   8    2653.3341300000     -0.0117205700
   9    1060.8157200000     -0.0264098600
  10     442.5934590000     -0.0450231099
  11     190.5856560000     -0.0271182900
  12      81.1318646000      0.1377190698
  13      36.8534197000      0.3075554395
  14      17.0183020000     -0.0289977800
  15       7.9010589100     -0.8592294387
  16       3.5984880400     -0.2508653696
  17       1.5701749400      1.0025071084
  18       0.6292505900      0.4127089794
  19       0.2236171400     -0.0128574900
  20       0.0894468600      0.0104208800
  21       0.0357787400     -0.0028170600
 S 21 
   1  27563063.3000000007      0.0000040700
   2  4023923.8900000001      0.0000114500
   3  831028.2800000000      0.0000320900
   4  209117.0700000000      0.0000814300
   5   60794.2054000000      0.0002014200
   6   19739.6940000000      0.0004941600
   7    6994.0092400000      0.0012303000
   8    2653.3341300000      0.0030029500
   9    1060.8157200000      0.0067863099
  10     442.5934590000      0.0115438199
  11     190.5856560000      0.0070614799
  12      81.1318646000     -0.0360706697
  13      36.8534197000     -0.0805627494
  14      17.0183020000      0.0063502199
  15       7.9010589100      0.2551530980
  16       3.5984880400      0.0645774995
  17       1.5701749400     -0.3992790768
  18       0.6292505900     -0.3121046575
  19       0.2236171400      0.2715868878
  20       0.0894468600      0.7364606841
  21       0.0357787400      0.2190582383
 S 21 
   1  27563063.3000000007     -0.0000073000
   2  4023923.8900000001     -0.0000205400
   3  831028.2800000000     -0.0000575600
   4  209117.0700000000     -0.0001461000
   5   60794.2054000000     -0.0003612400
   6   19739.6940000000     -0.0008869400
   7    6994.0092400000     -0.0022056900
   8    2653.3341300000     -0.0053945400
   9    1060.8157200000     -0.0121638000
  10     442.5934590000     -0.0207978399
  11     190.5856560000     -0.0125621100
  12      81.1318646000      0.0649656198
  13      36.8534197000      0.1488454395
  14      17.0183020000     -0.0214694799
  15       7.9010589100     -0.4708803683
  16       3.5984880400     -0.1606278694
  17       1.5701749400      1.1803949958
  18       0.6292505900     -0.1526276095
  19       0.2236171400     -1.4366133149
  20       0.0894468600      0.1862962293
  21       0.0357787400      0.9488399966
 S 21 
   1  27563063.3000000007      0.0000107900
   2  4023923.8900000001      0.0000303300
   3  831028.2800000000      0.0000850400
   4  209117.0700000000      0.0002155900
   5   60794.2054000000      0.0005343900
   6   19739.6940000000      0.0013065000
   7    6994.0092400000      0.0032717700
   8    2653.3341300000      0.0079238700
   9    1060.8157200000      0.0181355400
  10     442.5934590000      0.0303230500
  11     190.5856560000      0.0199620000
  12      81.1318646000     -0.1011390799
  13      36.8534197000     -0.2170798898
  14      17.0183020000      0.0287908300
  15       7.9010589100      0.7713284094
  16       3.5984880400      0.2191920798
  17       1.5701749400     -2.6694481380
  18       0.6292505900      2.8691718778
  19       0.2236171400     -0.2646745398
  20       0.0894468600     -1.9925035585
  21       0.0357787400      1.5596684888
 P 19 
   1  914994.3700000000      0.0000341500
   2  132787.7110000000      0.0001459800
   3   28725.0465000000      0.0005982300
   4    7990.8929200000      0.0023951900
   5    2678.9466600000      0.0092094900
   6    1026.5702900000      0.0324936199
   7     432.7006200000      0.0978736597
   8     195.3510860000      0.2295160393
   9      92.4471168000      0.3702790488
  10      45.1795981000      0.3283480590
  11      22.1047361000      0.1125654296
  12      10.8855916000      0.0069885500
  13       5.4306914500      0.0013184300
  14       2.4845586300     -0.0005808700
  15       1.1171259900      0.0002012200
  16       0.4557595200     -0.0001252800
  17       0.1823038000      0.0000582500
  18       0.0729215200     -0.0000276200
  19       0.0291686000      0.0000087100
 P 19 
   1  914994.3700000000     -0.0000155700
   2  132787.7110000000     -0.0000666200
   3   28725.0465000000     -0.0002737000
   4    7990.8929200000     -0.0010994600
   5    2678.9466600000     -0.0042605700
   6    1026.5702900000     -0.0152365301
   7     432.7006200000     -0.0472982203
   8     195.3510860000     -0.1161311408
   9      92.4471168000     -0.1998393614
  10      45.1795981000     -0.1515619111
  11      22.1047361000      0.1972626014
  12      10.8855916000      0.5488839240
  13       5.4306914500      0.3556046826
  14       2.4845586300      0.0487760804
  15       1.1171259900     -0.0004938400
  16       0.4557595200      0.0010139600
  17       0.1823038000     -0.0003597600
  18       0.0729215200      0.0001651400
  19       0.0291686000     -0.0000517300
 P 19 
   1  914994.3700000000      0.0000062600
   2  132787.7110000000      0.0000267600
   3   28725.0465000000      0.0001102000
   4    7990.8929200000      0.0004414900
   5    2678.9466600000      0.0017210300
   6    1026.5702900000      0.0061364100
   7     432.7006200000      0.0192796301
   8     195.3510860000      0.0473784102
   9      92.4471168000      0.0836800203
  10      45.1795981000      0.0582458402
  11      22.1047361000     -0.1101914604
  12      10.8855916000     -0.3414577613
  13       5.4306914500     -0.1752026007
  14       2.4845586300      0.4636509717
  15       1.1171259900      0.5877015122
  16       0.4557595200      0.1639516206
  17       0.1823038000     -0.0037726100
  18       0.0729215200      0.0045061400
  19       0.0291686000     -0.0013437300
 P 19 
   1  914994.3700000000     -0.0000013400
   2  132787.7110000000     -0.0000057300
   3   28725.0465000000     -0.0000236200
   4    7990.8929200000     -0.0000944900
   5    2678.9466600000     -0.0003692200
   6    1026.5702900000     -0.0013134400
   7     432.7006200000     -0.0041422800
   8     195.3510860000     -0.0101377599
   9      92.4471168000     -0.0180449199
  10      45.1795981000     -0.0122596299
  11      22.1047361000      0.0242806599
  12      10.8855916000      0.0781164096
  13       5.4306914500      0.0365376098
  14       2.4845586300     -0.1295183193
  15       1.1171259900     -0.1790283490
  16       0.4557595200     -0.0049612100
  17       0.1823038000      0.3527966081
  18       0.0729215200      0.5337039172
  19       0.0291686000      0.2508806887
 P 19 
   1  914994.3700000000      0.0000033900
   2  132787.7110000000      0.0000145300
   3   28725.0465000000      0.0000596400
   4    7990.8929200000      0.0002402500
   5    2678.9466600000      0.0009297700
   6    1026.5702900000      0.0033473100
   7     432.7006200000      0.0104146600
   8     195.3510860000      0.0262634000
   9      92.4471168000      0.0456513899
  10      45.1795981000      0.0334371000
  11      22.1047361000     -0.0683079999
  12      10.8855916000     -0.1932192198
  13       5.4306914500     -0.1346261498
  14       2.4845586300      0.4948399194
  15       1.1171259900      0.4427205594
  16       0.4557595200     -0.7932411490
  17       0.1823038000     -0.6234254692
  18       0.0729215200      0.4952200894
  19       0.0291686000      0.4100908695
 P 19 
   1  914994.3700000000     -0.0000047800
   2  132787.7110000000     -0.0000206100
   3   28725.0465000000     -0.0000833800
   4    7990.8929200000     -0.0003446500
   5    2678.9466600000     -0.0012869300
   6    1026.5702900000     -0.0048404100
   7     432.7006200000     -0.0143243900
   8     195.3510860000     -0.0362477699
   9      92.4471168000     -0.0578295799
  10      45.1795981000     -0.0535703899
  11      22.1047361000      0.1221056997
  12      10.8855916000      0.2117359895
  13       5.4306914500      0.3149880493
  14       2.4845586300     -1.2472226772
  15       1.1171259900      0.3031882093
  16       0.4557595200      1.5531656265
  17       0.1823038000     -1.6606956662
  18       0.0729215200      0.1650601996
  19       0.0291686000      0.6107328986
 D 13 
   1    1060.8157200000      0.0011296100
   2     442.5934590000      0.0041118500
   3     190.5856560000      0.0237224602
   4      81.1318646000      0.0907333406
   5      36.8534197000      0.2364775416
   6      17.0183020000      0.3988075028
   7       7.9010589100      0.3619500925
   8       3.5984880400      0.1181301808
   9       1.5701749400      0.0065732300
  10       0.6292505900      0.0008306700
  11       0.2236171400     -0.0003271900
  12       0.0894468500      0.0001754500
  13       0.0357787400     -0.0000615700
 D 13 
   1    1060.8157200000     -0.0003819500
   2     442.5934590000     -0.0014016100
   3     190.5856560000     -0.0080946000
   4      81.1318646000     -0.0314374500
   5      36.8534197000     -0.0826386800
   6      17.0183020000     -0.1355016700
   7       7.9010589100     -0.0870866300
   8       3.5984880400      0.1924687500
   9       1.5701749400      0.4559500999
  10       0.6292505900      0.4232261099
  11       0.2236171400      0.1599075700
  12       0.0894468500     -0.0010949800
  13       0.0357787400      0.0044526300
 D 13 
   1    1060.8157200000      0.0004952100
   2     442.5934590000      0.0017319900
   3     190.5856560000      0.0104685100
   4      81.1318646000      0.0397702701
   5      36.8534197000      0.1084477704
   6      17.0183020000      0.1613750405
   7       7.9010589100      0.0816549803
   8       3.5984880400     -0.3862696412
   9       1.5701749400     -0.5562438118
  10       0.6292505900      0.4733508215
  11       0.2236171400      0.5690140618
  12       0.0894468500      0.0178150501
  13       0.0357787400      0.0252807301
 D 13 
   1    1060.8157200000     -0.0005923100
   2     442.5934590000     -0.0015227700
   3     190.5856560000     -0.0121653800
   4      81.1318646000     -0.0392961001
   5      36.8534197000     -0.1283078904
   6      17.0183020000     -0.1295254404
   7       7.9010589100     -0.0986407003
   8       3.5984880400      0.7100058223
   9       1.5701749400     -0.0585010102
  10       0.6292505900     -0.9200721630
  11       0.2236171400      0.6433661221
  12       0.0894468500      0.3637313112
  13       0.0357787400      0.0890560703
 F 6 
   1       8.8023000000      0.0381649101
   2       3.5209200000     -0.4788754614
   3       0.5633470000     -0.9107091027
   4       0.2253380000      0.2390761007
   5       0.0901350000     -0.1691998805
   6       0.0360540000      0.0620749402
 F 6 
   1       8.8023000000     -0.1070516103
   2       3.5209200000      0.8609084925
   3       0.5633470000     -0.3382401910
   4       0.2253380000     -0.4781468314
   5       0.0901350000      0.0825779902
   6       0.0360540000     -0.0342366201
 G 4 
   1       4.2997470000      0.2708578794
   2       0.6879590000      0.9991459178
   3       0.2751830000     -0.1607295996
   4       0.1100730000      0.1002753398
  end;

------------------------------------------------------------------------------
                             ORCA STARTUP CALCULATIONS
------------------------------------------------------------------------------
------------------------------------------------------------------------------
                   ___                                                        
                  /   \      - P O W E R E D   B Y -                         
                 /     \                                                     
                 |  |  |   _    _      __       _____    __    __             
                 |  |  |  | |  | |    /  \     |  _  \  |  |  /  |          
                  \  \/   | |  | |   /    \    | | | |  |  | /  /          
                 / \  \   | |__| |  /  /\  \   | |_| |  |  |/  /          
                |  |  |   |  __  | /  /__\  \  |    /   |      \           
                |  |  |   | |  | | |   __   |  |    \   |  |\   \          
                \     /   | |  | | |  |  |  |  | |\  \  |  | \   \       
                 \___/    |_|  |_| |__|  |__|  |_| \__\ |__|  \__/        
                                                                              
                      - O R C A' S   B I G   F R I E N D -                    
                                      &                                       
                       - I N T E G R A L  F E E D E R -                       
                                                                              
 v1 FN, 2020, v2 2021, v3 2022-2024                                           
------------------------------------------------------------------------------


----------------------
SHARK INTEGRAL PACKAGE
----------------------

Number of atoms                             ...      2
Number of basis functions                   ...     91
Number of shells                            ...     29
Maximum angular momentum                    ...      4
Integral batch strategy                     ... SHARK/LIBINT Hybrid
RI-J (if used) integral strategy            ... SPLIT-RIJ (Revised 2003 algorithm where possible)
Printlevel                                  ...      1
Contraction scheme used                     ... GENERAL contraction
Prescreening option                         ... SCHWARTZ
   Thresh                                   ... 1.000e-12
   Tcut                                     ... 1.000e-11
   Tpresel                                  ... 1.000e-11 
Coulomb Range Separation                    ... NOT USED
Exchange Range Separation                   ... NOT USED
Multipole approximations                    ... NOT USED
Finite Nucleus Model                        ... NOT USED
CABS basis                                  ... NOT available
Auxiliary Coulomb fitting basis             ... NOT available
Auxiliary J/K fitting basis                 ... NOT available
Auxiliary Correlation fitting basis         ... NOT available
Auxiliary 'external' fitting basis          ... NOT available

Checking pre-screening integrals            ... done (  0.0 sec) Dimension = 29
Calculate PGC pre-screening integrals       ... done (  0.1 sec) Dimension = 75
Calculate PGC overlap integrals             ... done (  0.2 sec) Dimension = 75
Check shell pair data                       ... done (  0.0 sec)
Shell pair information
Shell pair cut-off parameter TPreSel        ...   1.0e-11
Total number of shell pairs                 ...       435
Shell pairs after pre-screening             ...         0
Total number of primitive shell pairs       ...     74990
Primitive shell pairs kept                  ...      3481

Calculating one electron integrals          ... done (  0.0 sec)
Calculating Nuclear repulsion               ... done (  0.0 sec) ENN=     14.261934867153 Eh

Diagonalization of the overlap matrix:
Smallest eigenvalue                        ... 1.979e-03
Time for diagonalization                   ...    0.001 sec
Threshold for overlap eigenvalues          ... 1.000e-07
Number of eigenvalues below threshold      ... 0
Time for construction of square roots      ...    0.001 sec
Total time needed                          ...    0.003 sec

-------------------
DFT GRID GENERATION
-------------------

General Integration Accuracy     IntAcc      ... 4.388
Radial Grid Type                 RadialGrid  ... OptM3 with GC (2021)
Angular Grid (max. ang.)         AngularGrid ... 4 (Lebedev-302)
Angular grid pruning method      GridPruning ... 4 (adaptive)
Weight generation scheme         WeightScheme... mBecke (2022)
Basis function cutoff            BFCut       ... 1.0000e-10
Integration weight cutoff        WCut        ... 1.0000e-14
Partially contracted basis set               ... off
Rotationally invariant grid construction     ... off
Angular grids for H and He will be reduced by one unit
Diffuse basis detected: some atoms will have their outermost
                        angular grid increased by 1.
Core-polarized basis detected: some atoms will have their core
                               angular grid increased.
Steep s-basis detected: some atoms will have their radial
                        grid points doubled.

Total number of grid points                  ...    31057
Total number of batches                      ...      486
Average number of points per batch           ...       63
Average number of grid points per atom       ...    15528
Initializing property integral containers    ... done (  0.0 sec)

SHARK setup successfully completed in   7.8 seconds

Maximum memory used throughout the entire STARTUP-calculation: 328.6 MB
-------------------------------------------------------------------------------
                                 ORCA GUESS
                   Start orbitals & Density for SCF / CASSCF
-------------------------------------------------------------------------------

------------
SCF SETTINGS
------------
Hamiltonian:
 Density Functional     Method          .... DFT(GTOs)
 Exchange Functional    Exchange        .... B88
   X-Alpha parameter    XAlpha          ....  0.666667
   Becke's b parameter  XBeta           ....  0.004200
 Correlation Functional Correlation     .... LYP
 LDA part of GGA corr.  LDAOpt          .... VWN-3
 Gradients option       PostSCFGGA      .... off
 Hybrid DFT is turned on
   Fraction HF Exchange ScalHFX         ....  0.200000
   Scaling of DF-GGA-X  ScalDFX         ....  0.720000
   Scaling of DF-GGA-C  ScalDFC         ....  0.810000
   Scaling of DF-LDA-C  ScalLDAC        ....  1.000000
   Perturbative correction              ....  0.000000
   NL short-range parameter             ....  4.800000


General Settings:
 Integral files         IntName         .... cdh_cpks
 Hartree-Fock type      HFTyp           .... UHF
 Total Charge           Charge          ....    0
 Multiplicity           Mult            ....    2
 Number of Electrons    NEL             ....   49
 Basis Dimension        Dim             ....   91
 Nuclear Repulsion      ENuc            ....     14.2619348672 Eh

Convergence Acceleration:
 AO-DIIS                CNVDIIS         .... on
   Start iteration      DIISMaxIt       ....    12
   Startup error        DIISStart       ....  0.200000
   # of expansion vecs  DIISMaxEq       ....     5
   Bias factor          DIISBfac        ....   1.050
   Max. coefficient     DIISMaxC        ....  10.000
 MO-DIIS                CNVKDIIS        .... off
 Trust-Rad. Augm. Hess. CNVTRAH         .... auto
   Auto Start mean grad. ratio tolernc. ....  1.125000
   Auto Start start iteration           ....    50
   Auto Start num. interpolation iter.  ....    10
   Max. Number of Micro iterations      ....    24
   Max. Number of Macro iterations      .... Maxiter - #DIIS iter
   Number of Davidson start vectors     ....     2
   Converg. threshold    (grad. norm)   ....   5.000e-05
   Grad. Scal. Fac. for Micro threshold ....   0.100
   Minimum threshold for Micro iter.    ....   1.000e-02
   NR start threshold (gradient norm)   ....   1.000e-04
   Initial trust radius                 ....   0.400
   Minimum AH scaling param. (alpha)    ....   1.000
   Maximum AH scaling param. (alpha)    .... 1000.000
   Quad. conv. algorithm                .... NR
   White noise on init. David. guess    .... on
   Maximum white noise                  ....   0.010
   Pseudo random numbers                .... off
   Inactive MOs                         .... canonical
   Orbital update algorithm             .... Taylor
   Preconditioner                       .... Diag
   Full preconditioner red. dimension   ....   250
 SOSCF                  CNVSOSCF        .... on
   Start iteration      SOSCFMaxIt      ....   150
   Startup grad/error   SOSCFStart      ....  0.003300
   Hessian update       SOSCFHessUp     .... L-BFGS
 Level Shifting         CNVShift        .... on
   Level shift para.    LevelShift      ....    0.2500
   Turn off err/grad.   ShiftErr        ....    0.0010
 Zerner damping         CNVZerner       .... off
 Static damping         CNVDamp         .... on
   Fraction old density DampFac         ....    0.7000
   Max. Damping (<1)    DampMax         ....    0.9800
   Min. Damping (>=0)   DampMin         ....    0.0000
   Turn off err/grad.   DampErr         ....    0.1000

SCF Procedure:
 Maximum # iterations   MaxIter         ....   500
 SCF integral mode      SCFMode         .... Direct
   Integral package                     .... SHARK and LIBINT hybrid scheme
 Reset frequency        DirectResetFreq ....    20
 Integral Threshold     Thresh          ....  1.000e-12 Eh
 Primitive CutOff       TCut            ....  1.000e-11 Eh

Convergence Tolerance:
 Convergence Check Mode ConvCheckMode   .... Total+1el-Energy
 Convergence forced     ConvForced      .... 0
 Energy Change          TolE            ....  1.000e-08 Eh
 1-El. energy change                    ....  1.000e-05 Eh
 Orbital Gradient       TolG            ....  5.000e-05
 Orbital Rotation angle TolX            ....  5.000e-05
 DIIS Error             TolErr          ....  1.000e-06

------------------------------
INITIAL GUESS: MODEL POTENTIAL
------------------------------
Loading Hartree-Fock densities                     ... done
Calculating cut-offs                               ... done
Initializing the effective Hamiltonian             ... done
Setting up the integral package (SHARK)            ... done
Starting the Coulomb interaction                   ... done (   0.5 sec)
Making the grid                                    ... done (   0.1 sec)
Mapping shells                                     ... done
Starting the XC term evaluation                    ... done (   0.1 sec)
  promolecular density results
     # of electrons  =     48.999927506
     EX              =   -149.221633576
     EC              =     -2.446607170
     EX+EC           =   -151.668240747
Transforming the Hamiltonian                       ... done (   0.0 sec)
Diagonalizing the Hamiltonian                      ... done (   0.0 sec)
Back transforming the eigenvectors                 ... done (   0.0 sec)
Now organizing SCF variables                       ... done
                      ------------------
                      INITIAL GUESS DONE (   0.7 sec)
                      ------------------
----------------------
INITIAL GUESS ORBITALS
----------------------
                      0         1         2         3         4         5   
                 -889.31472 -127.97273 -127.32389 -127.32351 -127.32351 -23.15748
                   1.00000   1.00000   1.00000   1.00000   1.00000   1.00000
                  --------  --------  --------  --------  --------  --------
  0H   1s        -0.013309  0.037967 -0.009655  0.000000 -0.000000  0.097658
  0H   2s        -0.012311  0.036877 -0.003449  0.000000 -0.000000  0.097189
  0H   3s         0.000191  0.000576  0.003190 -0.000000 -0.000000  0.003226
  0H   4s         0.000695 -0.001899  0.000612 -0.000000  0.000000 -0.004525
  0H   1pz       -0.000000  0.000000  0.000000 -0.000062 -0.000504  0.000000
  0H   1px       -0.006121  0.016800 -0.005784  0.000000 -0.000000  0.041991
  0H   1py        0.000000 -0.000000 -0.000000 -0.000504  0.000062 -0.000000
  0H   2pz       -0.000000  0.000000  0.000000 -0.000034 -0.000281  0.000000
  0H   2px       -0.004580  0.012941 -0.003463  0.000000 -0.000000  0.032932
  0H   2py        0.000000 -0.000000 -0.000000 -0.000281  0.000034  0.000000
  0H   3pz       -0.000000 -0.000000  0.000000  0.000011  0.000087 -0.000000
  0H   3px        0.000028  0.000121  0.000242 -0.000000 -0.000000  0.000941
  0H   3py        0.000000 -0.000000 -0.000000  0.000087 -0.000011  0.000000
  0H   1dz2       0.001137 -0.003248  0.000348  0.000000  0.000000 -0.008114
  0H   1dxz      -0.000000  0.000000  0.000000 -0.000032 -0.000260  0.000000
  0H   1dyz      -0.000000  0.000000  0.000000  0.000000  0.000000  0.000000
  0H   1dx2y2    -0.001969  0.005626 -0.000602  0.000000  0.000000  0.014055
  0H   1dxy       0.000000 -0.000000 -0.000000 -0.000260  0.000032 -0.000000
  0H   2dz2       0.000876 -0.002524  0.000235  0.000000  0.000000 -0.006184
  0H   2dxz      -0.000000  0.000000  0.000000 -0.000033 -0.000269  0.000000
  0H   2dyz      -0.000000  0.000000  0.000000  0.000000  0.000000  0.000000
  0H   2dx2y2    -0.001517  0.004371 -0.000407  0.000000 -0.000000  0.010711
  0H   2dxy       0.000000 -0.000000 -0.000000 -0.000269  0.000033 -0.000000
  1Cd  1s        -0.998416  0.048037 -0.000049 -0.000000 -0.000000  0.021479
  1Cd  2s        -0.049921 -0.996288  0.001924  0.000000  0.000000 -0.075002
  1Cd  3s         0.021290 -0.082197  0.001043 -0.000000  0.000000  0.978924
  1Cd  4s        -0.002583  0.011430  0.003289 -0.000000  0.000000  0.052599
  1Cd  5s         0.017171 -0.050771  0.008089 -0.000000  0.000000 -0.134809
  1Cd  6s        -0.001146  0.003746 -0.000896 -0.000000  0.000000  0.011549
  1Cd  7s         0.007379 -0.024102 -0.001131 -0.000000  0.000000 -0.066687
  1Cd  1pz        0.000000 -0.000000 -0.000000 -0.121304 -0.992488  0.000000
  1Cd  1px       -0.000029  0.001775  0.999850 -0.000000  0.000000  0.000199
  1Cd  1py        0.000000 -0.000000 -0.000000 -0.992488  0.121304  0.000000
  1Cd  2pz        0.000000 -0.000000 -0.000000 -0.001703 -0.013930 -0.000000
  1Cd  2px       -0.000348  0.000994  0.013784 -0.000000  0.000000  0.001208
  1Cd  2py       -0.000000 -0.000000 -0.000000 -0.013930  0.001703  0.000000
  1Cd  3pz        0.000000  0.000000  0.000000  0.000655  0.005360 -0.000000
  1Cd  3px       -0.003079  0.008573 -0.007703  0.000000 -0.000000  0.021438
  1Cd  3py       -0.000000  0.000000  0.000000  0.005360 -0.000655  0.000000
  1Cd  4pz        0.000000 -0.000000 -0.000000 -0.000098 -0.000799 -0.000000
  1Cd  4px       -0.009839  0.028073 -0.005806  0.000000 -0.000000  0.072105
  1Cd  4py       -0.000000  0.000000 -0.000000 -0.000799  0.000098 -0.000000
  1Cd  5pz        0.000000  0.000000  0.000000  0.000343  0.002808 -0.000000
  1Cd  5px        0.000600 -0.000885 -0.000561  0.000000 -0.000000 -0.000695
  1Cd  5py       -0.000000  0.000000  0.000000  0.002808 -0.000343  0.000000
  1Cd  6pz        0.000000  0.000000 -0.000000 -0.000492 -0.004026  0.000000
  1Cd  6px       -0.000413  0.001836  0.005873 -0.000000  0.000000  0.005207
  1Cd  6py       -0.000000 -0.000000 -0.000000 -0.004026  0.000492 -0.000000
  1Cd  1dz2      -0.000032  0.000087 -0.000025  0.000000  0.000000  0.000207
  1Cd  1dxz      -0.000000 -0.000000 -0.000000 -0.000000 -0.000003 -0.000000
  1Cd  1dyz      -0.000000  0.000000 -0.000000 -0.000000  0.000000  0.000000
  1Cd  1dx2y2     0.000055 -0.000151  0.000043 -0.000000  0.000000 -0.000359
  1Cd  1dxy      -0.000000  0.000000 -0.000000 -0.000003  0.000000  0.000000
  1Cd  2dz2      -0.000904  0.002445 -0.000919  0.000000 -0.000000  0.006015
  1Cd  2dxz      -0.000000  0.000000  0.000000 -0.000021 -0.000172  0.000000
  1Cd  2dyz      -0.000000 -0.000000 -0.000000 -0.000000 -0.000000  0.000000
  1Cd  2dx2y2     0.001566 -0.004235  0.001591 -0.000000  0.000000 -0.010418
  1Cd  2dxy       0.000000 -0.000000 -0.000000 -0.000172  0.000021  0.000000
  1Cd  3dz2      -0.001197  0.003206 -0.001426  0.000000 -0.000000  0.007943
  1Cd  3dxz      -0.000000  0.000000  0.000000 -0.000036 -0.000298  0.000000
  1Cd  3dyz       0.000000 -0.000000 -0.000000 -0.000000 -0.000000 -0.000000
  1Cd  3dx2y2     0.002074 -0.005552  0.002470 -0.000000  0.000000 -0.013758
  1Cd  3dxy       0.000000 -0.000000 -0.000000 -0.000298  0.000036 -0.000000
  1Cd  4dz2      -0.000694  0.001861 -0.000967 -0.000000 -0.000000  0.004623
  1Cd  4dxz      -0.000000  0.000000 -0.000000 -0.000031 -0.000253  0.000000
  1Cd  4dyz       0.000000 -0.000000 -0.000000 -0.000000 -0.000000  0.000000
  1Cd  4dx2y2     0.001202 -0.003224  0.001675 -0.000000  0.000000 -0.008007
  1Cd  4dxy       0.000000 -0.000000 -0.000000 -0.000253  0.000031  0.000000
  1Cd  1f0        0.000000 -0.000000 -0.000000  0.000009  0.000077 -0.000000
  1Cd  1f+1      -0.000354  0.000925 -0.000435  0.000000  0.000000  0.002254
  1Cd  1f-1       0.000000 -0.000000 -0.000000  0.000031 -0.000004 -0.000000
  1Cd  1f+2      -0.000000  0.000000 -0.000000 -0.000012 -0.000099  0.000000
  1Cd  1f-2      -0.000000 -0.000000  0.000000  0.000000  0.000000  0.000000
  1Cd  1f+3      -0.000457  0.001194 -0.000561 -0.000000  0.000000  0.002910
  1Cd  1f-3      -0.000000  0.000000  0.000000  0.000121 -0.000015 -0.000000
  1Cd  2f0        0.000000 -0.000000 -0.000000  0.000014  0.000116 -0.000000
  1Cd  2f+1      -0.000246  0.000583 -0.000540  0.000000 -0.000000  0.001376
  1Cd  2f-1      -0.000000  0.000000  0.000000  0.000048 -0.000006  0.000000
  1Cd  2f+2      -0.000000  0.000000  0.000000 -0.000018 -0.000150  0.000000
  1Cd  2f-2       0.000000  0.000000  0.000000 -0.000000 -0.000000 -0.000000
  1Cd  2f+3      -0.000317  0.000753 -0.000697  0.000000 -0.000000  0.001777
  1Cd  2f-3      -0.000000  0.000000  0.000000  0.000184 -0.000022  0.000000
  1Cd  1g0        0.000031 -0.000069  0.000073  0.000000 -0.000000 -0.000184
  1Cd  1g+1       0.000000 -0.000000  0.000000  0.000007  0.000054 -0.000000
  1Cd  1g-1      -0.000000  0.000000  0.000000 -0.000000 -0.000000  0.000000
  1Cd  1g+2      -0.000046  0.000103 -0.000108  0.000000 -0.000000  0.000274
  1Cd  1g-2      -0.000000  0.000000  0.000000  0.000026 -0.000003  0.000000
  1Cd  1g+3       0.000000 -0.000000 -0.000000  0.000006  0.000048 -0.000000
  1Cd  1g-3      -0.000000  0.000000  0.000000 -0.000000  0.000000  0.000000
  1Cd  1g+4      -0.000061  0.000136 -0.000143  0.000000  0.000000  0.000362
  1Cd  1g-4      -0.000000  0.000000 -0.000000  0.000068 -0.000008  0.000000
                      6         7         8         9        10        11   
                 -21.52900 -21.52821 -21.52821 -14.66149 -14.66142 -14.66142
                   1.00000   1.00000   1.00000   1.00000   1.00000   1.00000
                  --------  --------  --------  --------  --------  --------
  0H   1s         0.025975 -0.000000 -0.000000 -0.004927  0.000000  0.000000
  0H   2s         0.008838 -0.000000 -0.000000 -0.003423  0.000000  0.000000
  0H   3s        -0.008862 -0.000000 -0.000000  0.000642  0.000000  0.000000
  0H   4s        -0.001627  0.000000 -0.000000  0.000275 -0.000000  0.000000
  0H   1pz       -0.000000 -0.000570 -0.001367 -0.000000  0.000738  0.000062
  0H   1px        0.015663 -0.000000 -0.000000 -0.001407  0.000000  0.000000
  0H   1py        0.000000 -0.001367  0.000570 -0.000000 -0.000062  0.000738
  0H   2pz       -0.000000 -0.000315 -0.000755 -0.000000  0.000867  0.000073
  0H   2px        0.009556 -0.000000 -0.000000 -0.000938  0.000000  0.000000
  0H   2py        0.000000 -0.000755  0.000315 -0.000000 -0.000073  0.000867
  0H   3pz       -0.000000  0.000092  0.000221 -0.000000  0.000297  0.000025
  0H   3px       -0.000466 -0.000000 -0.000000  0.000003  0.000000  0.000000
  0H   3py       -0.000000  0.000221 -0.000092 -0.000000 -0.000025  0.000297
  0H   1dz2      -0.000828  0.000000 -0.000000  0.000009 -0.000000 -0.000000
  0H   1dxz      -0.000000 -0.000291 -0.000698 -0.000000  0.000139  0.000012
  0H   1dyz       0.000000 -0.000000  0.000000 -0.000000  0.000000 -0.000000
  0H   1dx2y2     0.001435 -0.000000  0.000000 -0.000016  0.000000  0.000000
  0H   1dxy       0.000000 -0.000698  0.000291 -0.000000 -0.000012  0.000139
  0H   2dz2      -0.000561  0.000000  0.000000 -0.000003 -0.000000 -0.000000
  0H   2dxz      -0.000000 -0.000286 -0.000686 -0.000000  0.000154  0.000013
  0H   2dyz       0.000000 -0.000000  0.000000 -0.000000  0.000000 -0.000000
  0H   2dx2y2     0.000972 -0.000000  0.000000  0.000004  0.000000  0.000000
  0H   2dxy       0.000000 -0.000686  0.000286 -0.000000 -0.000013  0.000154
  1Cd  1s        -0.000060  0.000000  0.000000  0.000015 -0.000000 -0.000000
  1Cd  2s        -0.000737  0.000000  0.000000  0.000095 -0.000000 -0.000000
  1Cd  3s        -0.001184  0.000000  0.000000  0.000358 -0.000000 -0.000000
  1Cd  4s        -0.008818  0.000000  0.000000  0.001387 -0.000000 -0.000000
  1Cd  5s        -0.021645  0.000000  0.000000  0.004390 -0.000000 -0.000000
  1Cd  6s         0.002639  0.000000  0.000000  0.001023 -0.000000 -0.000000
  1Cd  7s         0.003238  0.000000  0.000000  0.000286 -0.000000 -0.000000
  1Cd  1pz        0.000000 -0.005334 -0.012779 -0.000000 -0.000001 -0.000000
  1Cd  1px       -0.013784 -0.000000 -0.000000 -0.000007  0.000000  0.000000
  1Cd  1py        0.000000 -0.012779  0.005334 -0.000000  0.000000 -0.000001
  1Cd  2pz       -0.000000  0.385027  0.922469  0.000000  0.000058  0.000005
  1Cd  2px        1.000248  0.000000  0.000000  0.000013  0.000000  0.000000
  1Cd  2py       -0.000000  0.922469 -0.385027  0.000000 -0.000005  0.000058
  1Cd  3pz       -0.000000  0.007654  0.018339  0.000000 -0.000145 -0.000012
  1Cd  3px        0.026020  0.000000  0.000000 -0.000811  0.000000  0.000000
  1Cd  3py       -0.000000  0.018339 -0.007654  0.000000  0.000012 -0.000145
  1Cd  4pz        0.000000 -0.001202 -0.002881  0.000000 -0.000731 -0.000061
  1Cd  4px        0.014543 -0.000000 -0.000000 -0.003569  0.000000  0.000000
  1Cd  4py        0.000000 -0.002881  0.001202  0.000000  0.000061 -0.000731
  1Cd  5pz       -0.000000  0.003720  0.008913  0.000000 -0.000100 -0.000008
  1Cd  5px        0.003425  0.000000 -0.000000 -0.000139 -0.000000 -0.000000
  1Cd  5py       -0.000000  0.008913 -0.003720  0.000000  0.000008 -0.000100
  1Cd  6pz        0.000000 -0.004992 -0.011961  0.000000  0.000022  0.000002
  1Cd  6px       -0.018000 -0.000000 -0.000000  0.000190 -0.000000 -0.000000
  1Cd  6py        0.000000 -0.011961  0.004992  0.000000 -0.000002  0.000022
  1Cd  1dz2       0.000114  0.000000  0.000000 -0.500003  0.000000 -0.000000
  1Cd  1dxz       0.000000 -0.000032 -0.000076 -0.000000  0.996500  0.083532
  1Cd  1dyz       0.000000 -0.000000  0.000000  0.000000  0.000000  0.000000
  1Cd  1dx2y2    -0.000197 -0.000000  0.000000  0.866030  0.000000  0.000000
  1Cd  1dxy       0.000000 -0.000076  0.000032 -0.000000 -0.083532  0.996500
  1Cd  2dz2       0.002462 -0.000000  0.000000 -0.001468  0.000000 -0.000000
  1Cd  2dxz      -0.000000 -0.000193 -0.000462 -0.000000  0.002517  0.000211
  1Cd  2dyz      -0.000000  0.000000 -0.000000  0.000000  0.000000  0.000000
  1Cd  2dx2y2    -0.004264  0.000000 -0.000000  0.002543 -0.000000  0.000000
  1Cd  2dxy       0.000000 -0.000462  0.000193 -0.000000 -0.000211  0.002517
  1Cd  3dz2       0.003839 -0.000000  0.000000  0.000813  0.000000  0.000000
  1Cd  3dxz      -0.000000 -0.000331 -0.000792  0.000000 -0.002303 -0.000193
  1Cd  3dyz      -0.000000  0.000000 -0.000000 -0.000000 -0.000000  0.000000
  1Cd  3dx2y2    -0.006649  0.000000 -0.000000 -0.001409 -0.000000 -0.000000
  1Cd  3dxy       0.000000 -0.000792  0.000331 -0.000000  0.000193 -0.002303
  1Cd  4dz2       0.002596 -0.000000 -0.000000 -0.001525  0.000000 -0.000000
  1Cd  4dxz      -0.000000 -0.000279 -0.000670 -0.000000  0.002470  0.000207
  1Cd  4dyz      -0.000000  0.000000 -0.000000  0.000000 -0.000000  0.000000
  1Cd  4dx2y2    -0.004496  0.000000 -0.000000  0.002641 -0.000000  0.000000
  1Cd  4dxy       0.000000 -0.000670  0.000279 -0.000000 -0.000207  0.002470
  1Cd  1f0        0.000000  0.000087  0.000208  0.000000 -0.000064 -0.000005
  1Cd  1f+1       0.001164 -0.000000  0.000000 -0.000130  0.000000 -0.000000
  1Cd  1f-1       0.000000  0.000085 -0.000035 -0.000000  0.000002 -0.000026
  1Cd  1f+2      -0.000000 -0.000112 -0.000268  0.000000  0.000083  0.000007
  1Cd  1f-2      -0.000000  0.000000  0.000000 -0.000000 -0.000000  0.000000
  1Cd  1f+3       0.001502 -0.000000  0.000000 -0.000168  0.000000 -0.000000
  1Cd  1f-3      -0.000000  0.000328 -0.000137  0.000000  0.000009 -0.000102
  1Cd  2f0        0.000000  0.000119  0.000285 -0.000000 -0.000067 -0.000006
  1Cd  2f+1       0.001360 -0.000000  0.000000 -0.000149  0.000000 -0.000000
  1Cd  2f-1      -0.000000  0.000116 -0.000049  0.000000  0.000002 -0.000027
  1Cd  2f+2      -0.000000 -0.000154 -0.000368 -0.000000  0.000086  0.000007
  1Cd  2f-2       0.000000 -0.000000 -0.000000  0.000000  0.000000 -0.000000
  1Cd  2f+3       0.001756 -0.000000  0.000000 -0.000192  0.000000 -0.000000
  1Cd  2f-3      -0.000000  0.000451 -0.000188  0.000000  0.000009 -0.000106
  1Cd  1g0       -0.000182  0.000000 -0.000000  0.000013 -0.000000  0.000000
  1Cd  1g+1       0.000000  0.000057  0.000136  0.000000 -0.000025 -0.000002
  1Cd  1g-1       0.000000 -0.000000  0.000000  0.000000  0.000000 -0.000000
  1Cd  1g+2       0.000271 -0.000000  0.000000 -0.000020  0.000000 -0.000000
  1Cd  1g-2      -0.000000  0.000064 -0.000027 -0.000000  0.000001 -0.000012
  1Cd  1g+3       0.000000  0.000050  0.000120  0.000000 -0.000022 -0.000002
  1Cd  1g-3       0.000000  0.000000 -0.000000  0.000000  0.000000 -0.000000
  1Cd  1g+4       0.000359  0.000000  0.000000 -0.000026  0.000000 -0.000000
  1Cd  1g-4      -0.000000  0.000169 -0.000071  0.000000  0.000003 -0.000031
                     12        13        14        15        16        17   
                 -14.66126 -14.66126  -3.10560  -2.36593  -2.36308  -2.36308
                   1.00000   1.00000   1.00000   1.00000   1.00000   1.00000
                  --------  --------  --------  --------  --------  --------
  0H   1s        -0.000000 -0.000000 -0.213231 -0.025231  0.000000  0.000000
  0H   2s        -0.000000 -0.000000 -0.206420 -0.007290  0.000000  0.000000
  0H   3s         0.000000 -0.000000 -0.003984  0.006979  0.000000  0.000000
  0H   4s         0.000000  0.000000  0.008748  0.001230 -0.000000 -0.000000
  0H   1pz        0.000000 -0.000000 -0.000000  0.000000  0.000102  0.001276
  0H   1px       -0.000000 -0.000000 -0.090515 -0.016119  0.000000  0.000000
  0H   1py       -0.000000  0.000000  0.000000 -0.000000  0.001276 -0.000102
  0H   2pz        0.000000 -0.000000 -0.000000  0.000000  0.000023  0.000286
  0H   2px       -0.000000 -0.000000 -0.074279 -0.009101  0.000000  0.000000
  0H   2py       -0.000000  0.000000 -0.000000 -0.000000  0.000286 -0.000023
  0H   3pz        0.000000 -0.000000 -0.000000  0.000000 -0.000025 -0.000311
  0H   3px        0.000000 -0.000000 -0.005746  0.000396  0.000000  0.000000
  0H   3py       -0.000000  0.000000 -0.000000 -0.000000 -0.000311  0.000025
  0H   1dz2      -0.000000  0.000059  0.014566  0.001344 -0.000000 -0.000000
  0H   1dxz      -0.000000 -0.000000 -0.000000  0.000000  0.000067  0.000844
  0H   1dyz      -0.000068 -0.000000 -0.000000 -0.000000  0.000000 -0.000000
  0H   1dx2y2    -0.000000  0.000034 -0.025228 -0.002327  0.000000  0.000000
  0H   1dxy       0.000000  0.000000  0.000000 -0.000000  0.000844 -0.000067
  0H   2dz2      -0.000000  0.000076  0.010348  0.000707 -0.000000 -0.000000
  0H   2dxz       0.000000 -0.000000 -0.000000  0.000000  0.000047  0.000586
  0H   2dyz      -0.000088 -0.000000 -0.000000 -0.000000  0.000000 -0.000000
  0H   2dx2y2    -0.000000  0.000044 -0.017923 -0.001224  0.000000  0.000000
  0H   2dxy      -0.000000  0.000000  0.000000 -0.000000  0.000586 -0.000047
  1Cd  1s         0.000000  0.000000 -0.009096  0.000040 -0.000000 -0.000000
  1Cd  2s         0.000000  0.000000  0.035765  0.000761 -0.000000 -0.000000
  1Cd  3s         0.000000  0.000000 -0.056211  0.001967 -0.000000 -0.000000
  1Cd  4s         0.000000  0.000000  1.072503  0.013094 -0.000000 -0.000000
  1Cd  5s         0.000000  0.000000  0.311950  0.019775 -0.000000 -0.000000
  1Cd  6s        -0.000000  0.000000 -0.034286 -0.002818  0.000000 -0.000000
  1Cd  7s        -0.000000 -0.000000  0.131402 -0.002076  0.000000 -0.000000
  1Cd  1pz        0.000000 -0.000000 -0.000000 -0.000000  0.000437  0.005465
  1Cd  1px       -0.000000 -0.000000 -0.000419  0.005419  0.000000  0.000000
  1Cd  1py       -0.000000  0.000000 -0.000000 -0.000000  0.005465 -0.000437
  1Cd  2pz       -0.000000  0.000000 -0.000000  0.000000 -0.001532 -0.019183
  1Cd  2px       -0.000000 -0.000000 -0.004948 -0.019878 -0.000000  0.000000
  1Cd  2py        0.000000 -0.000000  0.000000  0.000000 -0.019183  0.001532
  1Cd  3pz       -0.000000  0.000000 -0.000000 -0.000000  0.079577  0.996252
  1Cd  3px       -0.000000 -0.000000 -0.048756  0.993277  0.000000  0.000000
  1Cd  3py        0.000000 -0.000000  0.000000 -0.000000  0.996252 -0.079577
  1Cd  4pz       -0.000000  0.000000  0.000000 -0.000000  0.000464  0.005806
  1Cd  4px       -0.000000 -0.000000 -0.157026 -0.009563  0.000000  0.000000
  1Cd  4py        0.000000 -0.000000  0.000000 -0.000000  0.005806 -0.000464
  1Cd  5pz       -0.000000  0.000000  0.000000 -0.000000 -0.000974 -0.012190
  1Cd  5px       -0.000000  0.000000  0.000895 -0.006613 -0.000000  0.000000
  1Cd  5py        0.000000 -0.000000  0.000000 -0.000000 -0.012190  0.000974
  1Cd  6pz       -0.000000  0.000000  0.000000 -0.000000  0.001056  0.013219
  1Cd  6px       -0.000000  0.000000 -0.004884  0.017393 -0.000000 -0.000000
  1Cd  6py        0.000000 -0.000000  0.000000 -0.000000  0.013219 -0.001056
  1Cd  1dz2       0.000803 -0.866018 -0.000409 -0.000081  0.000000  0.000000
  1Cd  1dxz      -0.000000  0.000000  0.000000  0.000000  0.000002  0.000024
  1Cd  1dyz       0.999991  0.000927  0.000000  0.000000 -0.000000  0.000000
  1Cd  1dx2y2     0.000463 -0.499996  0.000708  0.000140 -0.000000  0.000000
  1Cd  1dxy      -0.000000 -0.000000  0.000000  0.000000  0.000024 -0.000002
  1Cd  2dz2       0.000002 -0.002027 -0.012914 -0.001138  0.000000  0.000000
  1Cd  2dxz       0.000000  0.000000 -0.000000  0.000000 -0.000049 -0.000614
  1Cd  2dyz       0.002341  0.000002  0.000000  0.000000 -0.000000  0.000000
  1Cd  2dx2y2     0.000001 -0.001171  0.022368  0.001971 -0.000000 -0.000000
  1Cd  2dxy      -0.000000  0.000000  0.000000  0.000000 -0.000614  0.000049
  1Cd  3dz2      -0.000002  0.002312 -0.017433 -0.003193  0.000000  0.000000
  1Cd  3dxz       0.000000 -0.000000 -0.000000  0.000000  0.000049  0.000618
  1Cd  3dyz      -0.002670 -0.000002  0.000000  0.000000 -0.000000  0.000000
  1Cd  3dx2y2    -0.000001  0.001335  0.030195  0.005531 -0.000000 -0.000000
  1Cd  3dxy      -0.000000  0.000000  0.000000 -0.000000  0.000618 -0.000049
  1Cd  4dz2       0.000002 -0.001764 -0.009994 -0.002040  0.000000  0.000000
  1Cd  4dxz       0.000000 -0.000000 -0.000000  0.000000  0.000041  0.000519
  1Cd  4dyz       0.002037  0.000002  0.000000  0.000000 -0.000000  0.000000
  1Cd  4dx2y2     0.000001 -0.001018  0.017310  0.003533 -0.000000 -0.000000
  1Cd  4dxy      -0.000000  0.000000  0.000000  0.000000  0.000519 -0.000041
  1Cd  1f0        0.000000  0.000000  0.000000  0.000000  0.000004  0.000055
  1Cd  1f+1       0.000000 -0.000017 -0.004852 -0.000532  0.000000 -0.000000
  1Cd  1f-1       0.000000  0.000000  0.000000 -0.000000  0.000022 -0.000002
  1Cd  1f+2       0.000000 -0.000000 -0.000000 -0.000000 -0.000006 -0.000071
  1Cd  1f-2       0.000021  0.000000  0.000000 -0.000000 -0.000000  0.000000
  1Cd  1f+3      -0.000000  0.000013 -0.006264 -0.000687  0.000000  0.000000
  1Cd  1f-3       0.000000 -0.000000 -0.000000 -0.000000  0.000087 -0.000007
  1Cd  2f0       -0.000000  0.000000  0.000000 -0.000000 -0.000009 -0.000114
  1Cd  2f+1       0.000000 -0.000008 -0.003073 -0.000705  0.000000  0.000000
  1Cd  2f-1      -0.000000 -0.000000 -0.000000 -0.000000 -0.000047  0.000004
  1Cd  2f+2      -0.000000 -0.000000 -0.000000  0.000000  0.000012  0.000147
  1Cd  2f-2       0.000010  0.000000 -0.000000  0.000000  0.000000 -0.000000
  1Cd  2f+3      -0.000000  0.000006 -0.003967 -0.000910  0.000000  0.000000
  1Cd  2f-3      -0.000000  0.000000 -0.000000  0.000000 -0.000181  0.000014
  1Cd  1g0       -0.000000  0.000007  0.000536  0.000019 -0.000000  0.000000
  1Cd  1g+1       0.000000 -0.000000  0.000000 -0.000000  0.000003  0.000032
  1Cd  1g-1      -0.000004 -0.000000 -0.000000 -0.000000  0.000000  0.000000
  1Cd  1g+2       0.000000 -0.000006 -0.000799 -0.000026  0.000000  0.000000
  1Cd  1g-2       0.000000 -0.000000 -0.000000  0.000000  0.000014 -0.000001
  1Cd  1g+3      -0.000000  0.000000  0.000000 -0.000000  0.000002  0.000027
  1Cd  1g-3      -0.000012 -0.000000 -0.000000  0.000000  0.000000  0.000000
  1Cd  1g+4      -0.000000  0.000008 -0.001057 -0.000036 -0.000000 -0.000000
  1Cd  1g-4      -0.000000  0.000000 -0.000000  0.000000  0.000039 -0.000003
                     18        19        20        21        22        23   
                  -0.47829  -0.45874  -0.45874  -0.45542  -0.45541  -0.29262
                   1.00000   1.00000   1.00000   1.00000   1.00000   1.00000
                  --------  --------  --------  --------  --------  --------
  0H   1s         0.219908  0.000000 -0.000000 -0.000000 -0.000000  0.815667
  0H   2s        -0.012418  0.000000 -0.000000 -0.000000 -0.000000  0.120111
  0H   3s         0.008718  0.000000 -0.000000 -0.000000 -0.000000 -0.008224
  0H   4s         0.000562 -0.000000  0.000000  0.000000  0.000000 -0.002968
  0H   1pz       -0.000000 -0.000000 -0.009502  0.000000  0.000000  0.000000
  0H   1px        0.021163  0.000000 -0.000000  0.000000 -0.000000  0.042581
  0H   1py        0.000000 -0.009502  0.000000 -0.000000 -0.000000 -0.000000
  0H   2pz       -0.000000  0.000000  0.000381  0.000000  0.000000  0.000000
  0H   2px       -0.000486  0.000000 -0.000000  0.000000 -0.000000  0.024856
  0H   2py        0.000000  0.000381 -0.000000 -0.000000 -0.000000 -0.000000
  0H   3pz       -0.000000  0.000000  0.000834  0.000000  0.000000  0.000000
  0H   3px        0.000033  0.000000 -0.000000 -0.000000 -0.000000  0.001954
  0H   3py        0.000000  0.000834 -0.000000 -0.000000 -0.000000 -0.000000
  0H   1dz2      -0.002789 -0.000000  0.000000  0.000000 -0.000766 -0.003019
  0H   1dxz       0.000000 -0.000000 -0.002744 -0.000000  0.000000  0.000000
  0H   1dyz       0.000000  0.000000 -0.000000 -0.000881 -0.000000  0.000000
  0H   1dx2y2     0.004830  0.000000 -0.000000  0.000000 -0.000442  0.005229
  0H   1dxy      -0.000000 -0.002744  0.000000  0.000000 -0.000000 -0.000000
  0H   2dz2      -0.000777 -0.000000  0.000000  0.000000 -0.000213 -0.002004
  0H   2dxz       0.000000  0.000000  0.000039  0.000000  0.000000  0.000000
  0H   2dyz       0.000000  0.000000 -0.000000 -0.000242 -0.000000  0.000000
  0H   2dx2y2     0.001346  0.000000 -0.000000  0.000000 -0.000123  0.003471
  0H   2dxy      -0.000000  0.000039 -0.000000 -0.000000 -0.000000 -0.000000
  1Cd  1s         0.000090 -0.000000  0.000000  0.000000  0.000000  0.000513
  1Cd  2s        -0.001898 -0.000000  0.000000  0.000000  0.000000 -0.010370
  1Cd  3s        -0.002602 -0.000000  0.000000  0.000000  0.000000 -0.013631
  1Cd  4s        -0.025702 -0.000000  0.000000  0.000000  0.000000 -0.126147
  1Cd  5s         0.023009 -0.000000  0.000000  0.000000  0.000000  0.215841
  1Cd  6s        -0.007144 -0.000000  0.000000 -0.000000  0.000000 -0.030614
  1Cd  7s        -0.007510 -0.000000  0.000000 -0.000000  0.000000 -0.047501
  1Cd  1pz        0.000000  0.000000  0.000020  0.000000  0.000000 -0.000000
  1Cd  1px        0.000291  0.000000 -0.000000 -0.000000 -0.000000  0.001078
  1Cd  1py        0.000000  0.000020 -0.000000  0.000000  0.000000 -0.000000
  1Cd  2pz        0.000000 -0.000000 -0.000008 -0.000000 -0.000000  0.000000
  1Cd  2px        0.001072  0.000000 -0.000000 -0.000000 -0.000000  0.004749
  1Cd  2py       -0.000000 -0.000008  0.000000  0.000000  0.000000  0.000000
  1Cd  3pz        0.000000  0.000000  0.001642 -0.000000 -0.000000 -0.000000
  1Cd  3px        0.023992  0.000000 -0.000000 -0.000000 -0.000000  0.080654
  1Cd  3py       -0.000000  0.001642 -0.000000  0.000000  0.000000  0.000000
  1Cd  4pz        0.000000 -0.000000 -0.003453 -0.000000 -0.000000 -0.000000
  1Cd  4px       -0.016908  0.000000 -0.000000 -0.000000 -0.000000 -0.071065
  1Cd  4py       -0.000000 -0.003453  0.000000  0.000000  0.000000  0.000000
  1Cd  5pz        0.000000  0.000000  0.001821 -0.000000 -0.000000 -0.000000
  1Cd  5px        0.012753  0.000000 -0.000000 -0.000000 -0.000000  0.046401
  1Cd  5py       -0.000000  0.001821 -0.000000  0.000000  0.000000  0.000000
  1Cd  6pz        0.000000  0.000000  0.000325 -0.000000 -0.000000 -0.000000
  1Cd  6px        0.002927  0.000000 -0.000000 -0.000000 -0.000000  0.013820
  1Cd  6py       -0.000000  0.000325 -0.000000  0.000000  0.000000  0.000000
  1Cd  1dz2       0.001312 -0.000000 -0.000000 -0.000000  0.002020  0.000337
  1Cd  1dxz       0.000000 -0.000000 -0.002356 -0.000000  0.000000 -0.000000
  1Cd  1dyz      -0.000000 -0.000000  0.000000  0.002333  0.000000  0.000000
  1Cd  1dx2y2    -0.002273 -0.000000  0.000000 -0.000000  0.001166 -0.000584
  1Cd  1dxy      -0.000000 -0.002356  0.000000  0.000000  0.000000 -0.000000
  1Cd  2dz2      -0.468332 -0.000000 -0.000000  0.000000 -0.865585  0.170384
  1Cd  2dxz       0.000000  0.000000  0.997767  0.000000 -0.000000  0.000000
  1Cd  2dyz      -0.000000 -0.000000  0.000000 -0.999492 -0.000000  0.000000
  1Cd  2dx2y2     0.811175 -0.000000 -0.000000  0.000000 -0.499746 -0.295114
  1Cd  2dxy      -0.000000  0.997767 -0.000000 -0.000000 -0.000000 -0.000000
  1Cd  3dz2      -0.009447  0.000000 -0.000000  0.000000 -0.015478  0.004517
  1Cd  3dxz      -0.000000  0.000000  0.019065  0.000000  0.000000  0.000000
  1Cd  3dyz      -0.000000 -0.000000  0.000000 -0.017856 -0.000000 -0.000000
  1Cd  3dx2y2     0.016362 -0.000000  0.000000  0.000000 -0.008936 -0.007823
  1Cd  3dxy       0.000000  0.019065 -0.000000 -0.000000 -0.000000 -0.000000
  1Cd  4dz2      -0.011059  0.000000 -0.000000  0.000000 -0.020769  0.006401
  1Cd  4dxz      -0.000000  0.000000  0.024219  0.000000  0.000000  0.000000
  1Cd  4dyz      -0.000000 -0.000000  0.000000 -0.023976 -0.000000 -0.000000
  1Cd  4dx2y2     0.019155 -0.000000  0.000000  0.000000 -0.011991 -0.011088
  1Cd  4dxy       0.000000  0.024219 -0.000000 -0.000000 -0.000000 -0.000000
  1Cd  1f0       -0.000000 -0.000000 -0.001695  0.000000  0.000000 -0.000000
  1Cd  1f+1      -0.003929  0.000000 -0.000000  0.000000 -0.000836 -0.005467
  1Cd  1f-1       0.000000 -0.000700  0.000000  0.000000 -0.000000 -0.000000
  1Cd  1f+2      -0.000000  0.000000  0.002198  0.000000 -0.000000  0.000000
  1Cd  1f-2      -0.000000 -0.000000  0.000000 -0.001042 -0.000000  0.000000
  1Cd  1f+3      -0.005072  0.000000 -0.000000 -0.000000  0.000647 -0.007058
  1Cd  1f-3      -0.000000 -0.002686  0.000000  0.000000  0.000000  0.000000
  1Cd  2f0       -0.000000 -0.000000 -0.000676 -0.000000 -0.000000 -0.000000
  1Cd  2f+1      -0.001402  0.000000 -0.000000  0.000000 -0.000308 -0.001375
  1Cd  2f-1      -0.000000 -0.000280  0.000000  0.000000  0.000000  0.000000
  1Cd  2f+2       0.000000  0.000000  0.000878  0.000000  0.000000  0.000000
  1Cd  2f-2       0.000000 -0.000000  0.000000 -0.000383 -0.000000  0.000000
  1Cd  2f+3      -0.001810  0.000000 -0.000000 -0.000000  0.000239 -0.001776
  1Cd  2f-3      -0.000000 -0.001072  0.000000  0.000000  0.000000  0.000000
  1Cd  1g0        0.000538  0.000000  0.000000 -0.000000  0.000216  0.000349
  1Cd  1g+1      -0.000000 -0.000000 -0.000696 -0.000000  0.000000 -0.000000
  1Cd  1g-1       0.000000  0.000000  0.000000  0.000137  0.000000  0.000000
  1Cd  1g+2      -0.000808 -0.000000  0.000000  0.000000 -0.000193 -0.000510
  1Cd  1g-2       0.000000 -0.000336  0.000000  0.000000  0.000000  0.000000
  1Cd  1g+3      -0.000000 -0.000000 -0.000622  0.000000  0.000000 -0.000000
  1Cd  1g-3      -0.000000  0.000000  0.000000  0.000362  0.000000  0.000000
  1Cd  1g+4      -0.001066 -0.000000 -0.000000 -0.000000  0.000256 -0.000681
  1Cd  1g-4       0.000000 -0.000871  0.000000  0.000000 -0.000000  0.000000
                     24        25        26        27        28        29   
                  -0.12952  -0.05633  -0.05633   0.02190   0.04849   0.14467
                   1.00000   0.00000   0.00000   0.00000   0.00000   0.00000
                  --------  --------  --------  --------  --------  --------
  0H   1s        -0.196967 -0.000000 -0.000000  0.932175  1.285273  0.000000
  0H   2s         0.156495 -0.000000  0.000000  1.697888  0.680416  0.000000
  0H   3s         0.043141 -0.000000  0.000000  0.512030 -0.035100  0.000000
  0H   4s        -0.002997  0.000000  0.000000  0.016020 -0.015469 -0.000000
  0H   1pz        0.000000  0.052861  0.019430  0.000000  0.000000  0.761881
  0H   1px        0.110897 -0.000000 -0.000000  0.104751 -0.177056  0.000000
  0H   1py        0.000000  0.019430 -0.052861  0.000000 -0.000000  0.321623
  0H   2pz       -0.000000  0.028218  0.010372  0.000000  0.000000  0.754441
  0H   2px        0.097298 -0.000000 -0.000000  0.128488 -0.155999  0.000000
  0H   2py        0.000000  0.010372 -0.028218  0.000000 -0.000000  0.318482
  0H   3pz       -0.000000  0.002567  0.000944  0.000000  0.000000  0.164440
  0H   3px        0.014879 -0.000000  0.000000  0.026315 -0.029035  0.000000
  0H   3py        0.000000  0.000944 -0.002567  0.000000 -0.000000  0.069417
  0H   1dz2      -0.008418  0.000000  0.000000 -0.007641  0.015479 -0.000000
  0H   1dxz      -0.000000  0.001755  0.000645  0.000000  0.000000  0.017055
  0H   1dyz      -0.000000 -0.000000  0.000000  0.000000 -0.000000  0.000000
  0H   1dx2y2     0.014580 -0.000000 -0.000000  0.013234 -0.026810  0.000000
  0H   1dxy      -0.000000  0.000645 -0.001755  0.000000 -0.000000  0.007200
  0H   2dz2      -0.005593  0.000000  0.000000 -0.005082  0.010404 -0.000000
  0H   2dxz      -0.000000  0.000121  0.000045  0.000000 -0.000000  0.011812
  0H   2dyz      -0.000000 -0.000000  0.000000  0.000000 -0.000000  0.000000
  0H   2dx2y2     0.009687 -0.000000 -0.000000  0.008803 -0.018020  0.000000
  0H   2dxy      -0.000000  0.000045 -0.000121  0.000000 -0.000000  0.004986
  1Cd  1s         0.001350  0.000000 -0.000000 -0.004823 -0.002054 -0.000000
  1Cd  2s        -0.010050  0.000000  0.000000 -0.022431 -0.004628 -0.000000
  1Cd  3s        -0.001588  0.000000 -0.000000 -0.104576 -0.036067 -0.000000
  1Cd  4s        -0.090730  0.000000  0.000000 -0.332825 -0.106547 -0.000000
  1Cd  5s         0.662472  0.000000 -0.000000 -1.392072 -0.924312 -0.000000
  1Cd  6s         0.087325  0.000000 -0.000000 -0.278982 -0.282163 -0.000000
  1Cd  7s        -0.032540  0.000000 -0.000000 -0.057497 -0.052070 -0.000000
  1Cd  1pz       -0.000000 -0.001019 -0.000375 -0.000000 -0.000000 -0.000892
  1Cd  1px       -0.000489 -0.000000 -0.000000  0.000464 -0.000096  0.000000
  1Cd  1py       -0.000000 -0.000375  0.001019 -0.000000  0.000000 -0.000377
  1Cd  2pz        0.000000  0.002915  0.001072  0.000000 -0.000000 -0.009278
  1Cd  2px        0.003717 -0.000000 -0.000000  0.008793  0.008614  0.000000
  1Cd  2py        0.000000  0.001072 -0.002915  0.000000 -0.000000 -0.003917
  1Cd  3pz        0.000000 -0.009941 -0.003654 -0.000000 -0.000000 -0.100124
  1Cd  3px        0.002346 -0.000000 -0.000000  0.075108  0.081564  0.000000
  1Cd  3py       -0.000000 -0.003654  0.009941 -0.000000  0.000000 -0.042267
  1Cd  4pz        0.000000  0.903060  0.331927 -0.000000  0.000000 -0.644346
  1Cd  4px        0.525200 -0.000000 -0.000000  0.563015  1.359660  0.000000
  1Cd  4py       -0.000000  0.331927 -0.903060  0.000000  0.000000 -0.272007
  1Cd  5pz        0.000000  0.086836  0.031917  0.000000 -0.000000 -0.268449
  1Cd  5px       -0.002993  0.000000  0.000000  0.073577  0.385349  0.000000
  1Cd  5py       -0.000000  0.031917 -0.086836 -0.000000  0.000000 -0.113324
  1Cd  6pz        0.000000  0.027265  0.010021  0.000000 -0.000000 -0.093997
  1Cd  6px       -0.003424  0.000000  0.000000  0.020715  0.128027 -0.000000
  1Cd  6py       -0.000000  0.010021 -0.027265 -0.000000  0.000000 -0.039680
  1Cd  1dz2       0.000101  0.000000  0.000000  0.000169  0.000472 -0.000000
  1Cd  1dxz      -0.000000  0.000094  0.000034 -0.000000  0.000000  0.001960
  1Cd  1dyz       0.000000  0.000000  0.000000  0.000000  0.000000 -0.000000
  1Cd  1dx2y2    -0.000174  0.000000  0.000000 -0.000292 -0.000817 -0.000000
  1Cd  1dxy       0.000000  0.000034 -0.000094 -0.000000  0.000000  0.000827
  1Cd  2dz2      -0.037127 -0.000000 -0.000000 -0.011175  0.080881  0.000000
  1Cd  2dxz       0.000000  0.015601  0.005734  0.000000  0.000000  0.167814
  1Cd  2dyz      -0.000000  0.000000 -0.000000 -0.000000 -0.000000 -0.000000
  1Cd  2dx2y2     0.064305  0.000000  0.000000  0.019356 -0.140089 -0.000000
  1Cd  2dxy      -0.000000  0.005734 -0.015601  0.000000 -0.000000  0.070842
  1Cd  3dz2       0.016226 -0.000000 -0.000000  0.018196 -0.022851  0.000000
  1Cd  3dxz      -0.000000 -0.002761 -0.001015  0.000000 -0.000000 -0.043848
  1Cd  3dyz      -0.000000 -0.000000  0.000000  0.000000 -0.000000 -0.000000
  1Cd  3dx2y2    -0.028104  0.000000  0.000000 -0.031516  0.039580 -0.000000
  1Cd  3dxy      -0.000000 -0.001015  0.002761  0.000000 -0.000000 -0.018510
  1Cd  4dz2       0.007554 -0.000000 -0.000000  0.009796 -0.009425  0.000000
  1Cd  4dxz      -0.000000 -0.001223 -0.000450  0.000000 -0.000000 -0.025139
  1Cd  4dyz      -0.000000 -0.000000 -0.000000  0.000000 -0.000000 -0.000000
  1Cd  4dx2y2    -0.013084  0.000000  0.000000 -0.016967  0.016324 -0.000000
  1Cd  4dxy      -0.000000 -0.000450  0.001223  0.000000 -0.000000 -0.010612
  1Cd  1f0        0.000000  0.001102  0.000405 -0.000000 -0.000000  0.004090
  1Cd  1f+1       0.006680 -0.000000 -0.000000  0.006021 -0.009990  0.000000
  1Cd  1f-1       0.000000  0.000161 -0.000439  0.000000 -0.000000  0.000692
  1Cd  1f+2      -0.000000 -0.001408 -0.000518  0.000000  0.000000 -0.005241
  1Cd  1f-2      -0.000000 -0.000000 -0.000000  0.000000  0.000000 -0.000000
  1Cd  1f+3       0.008624 -0.000000 -0.000000  0.007773 -0.012897  0.000000
  1Cd  1f-3       0.000000  0.000637 -0.001733 -0.000000  0.000000  0.002720
  1Cd  2f0        0.000000  0.000447  0.000164 -0.000000 -0.000000 -0.001289
  1Cd  2f+1       0.002991 -0.000000 -0.000000  0.002567 -0.002362  0.000000
  1Cd  2f-1       0.000000  0.000067 -0.000183 -0.000000  0.000000 -0.000223
  1Cd  2f+2      -0.000000 -0.000577 -0.000212  0.000000  0.000000  0.001668
  1Cd  2f-2      -0.000000  0.000000 -0.000000 -0.000000  0.000000 -0.000000
  1Cd  2f+3       0.003861 -0.000000 -0.000000  0.003314 -0.003050  0.000000
  1Cd  2f-3       0.000000  0.000260 -0.000707 -0.000000  0.000000 -0.000861
  1Cd  1g0       -0.000476  0.000000 -0.000000 -0.000171  0.000393 -0.000000
  1Cd  1g+1      -0.000000  0.000177  0.000065 -0.000000 -0.000000 -0.001365
  1Cd  1g-1      -0.000000  0.000000  0.000000  0.000000 -0.000000 -0.000000
  1Cd  1g+2       0.000720  0.000000 -0.000000  0.000233 -0.000577 -0.000000
  1Cd  1g-2      -0.000000  0.000028 -0.000076  0.000000 -0.000000 -0.000279
  1Cd  1g+3      -0.000000  0.000148  0.000054 -0.000000 -0.000000 -0.001222
  1Cd  1g-3       0.000000  0.000000 -0.000000  0.000000  0.000000 -0.000000
  1Cd  1g+4       0.000946 -0.000000  0.000000  0.000321 -0.000768  0.000000
  1Cd  1g-4       0.000000  0.000080 -0.000217  0.000000  0.000000 -0.000721
                     30        31        32        33        34        35   
                   0.14467   0.16839   0.21872   0.22928   0.22928   0.41104
                   0.00000   0.00000   0.00000   0.00000   0.00000   0.00000
                  --------  --------  --------  --------  --------  --------
  0H   1s        -0.000000 -0.179253 -3.026428 -0.000000  0.000000 -1.199829
  0H   2s        -0.000000 -0.432466 -3.180028 -0.000000  0.000000 -0.183139
  0H   3s        -0.000000 -0.148754 -0.510719 -0.000000  0.000000  0.179710
  0H   4s        -0.000000 -0.006053  0.019505  0.000000 -0.000000  0.000849
  0H   1pz        0.321623  0.000000  0.000000  0.010729  0.134531  0.000000
  0H   1px        0.000000  0.313360 -1.462745 -0.000000  0.000000 -1.199168
  0H   1py       -0.761881  0.000000  0.000000 -0.134531  0.010729 -0.000000
  0H   2pz        0.318482  0.000000  0.000000  0.013328  0.167111 -0.000000
  0H   2px        0.000000  0.293549 -1.316265 -0.000000  0.000000 -1.182860
  0H   2py       -0.754441  0.000000  0.000000 -0.167111  0.013328 -0.000000
  0H   3pz        0.069417  0.000000  0.000000  0.003680  0.046144 -0.000000
  0H   3px       -0.000000  0.054880 -0.217919 -0.000000  0.000000 -0.208788
  0H   3py       -0.164440  0.000000  0.000000 -0.046144  0.003680  0.000000
  0H   1dz2      -0.000000 -0.015626  0.037466  0.000000 -0.000000  0.070836
  0H   1dxz       0.007200 -0.000000 -0.000000 -0.000864 -0.010837 -0.000000
  0H   1dyz      -0.000000 -0.000000 -0.000000  0.000000  0.000000 -0.000000
  0H   1dx2y2     0.000000  0.027065 -0.064892 -0.000000  0.000000 -0.122692
  0H   1dxy      -0.017055 -0.000000 -0.000000  0.010837 -0.000864 -0.000000
  0H   2dz2      -0.000000 -0.009158  0.022586  0.000000 -0.000000  0.042652
  0H   2dxz       0.004986 -0.000000 -0.000000 -0.000444 -0.005570 -0.000000
  0H   2dyz      -0.000000 -0.000000 -0.000000  0.000000  0.000000 -0.000000
  0H   2dx2y2     0.000000  0.015862 -0.039121 -0.000000  0.000000 -0.073875
  0H   2dxy      -0.011812 -0.000000 -0.000000  0.005570 -0.000444 -0.000000
  1Cd  1s        -0.000000 -0.002507  0.013317  0.000000 -0.000000  0.008803
[...]
 1 Cd f+1             0.0       4.8       0.0       0.0       0.0      10.9
 1 Cd f-1             0.0       0.0       0.0       0.7       0.5       0.0
 1 Cd f+2             0.0       0.0       0.0       4.6       6.5       0.0
 1 Cd f-2             7.7       0.0       0.0       0.0       0.0       0.0
 1 Cd f+3             0.0       2.9       0.0       0.0       0.0      18.1
 1 Cd f-3             0.0       0.0       0.0       9.8       6.9       0.0
 1 Cd g0              0.0       0.1       0.0       0.0       0.0       0.8
 1 Cd g+2             0.0       0.1       0.1       0.0       0.0       1.7
 1 Cd g-3             0.2       0.0       0.0       0.0       0.0       0.0
 1 Cd g+4             0.0       0.1       0.2       0.0       0.0       3.0

                     90   
                   6.40790
                   0.00000
                  --------
 0 H  s              26.1
 0 H  px             21.1
 0 H  dz2             3.0
 0 H  dx2y2           9.0
 1 Cd s               7.2
 1 Cd px             10.7
 1 Cd dz2             1.2
 1 Cd dx2y2           3.6
 1 Cd f+1             6.7
 1 Cd f+3            11.1
 1 Cd g+2             0.1
 1 Cd g+4             0.2


                      *****************************
                      * MAYER POPULATION ANALYSIS *
                      *****************************

  NA   - Mulliken gross atomic population
  ZA   - Total nuclear charge
  QA   - Mulliken gross atomic charge
  VA   - Mayer's total valence
  BVA  - Mayer's bonded valence
  FA   - Mayer's free valence

  ATOM       NA         ZA         QA         VA         BVA        FA
  0 H      1.4557     1.0000    -0.4557     0.9292     0.8886     0.0406
  1 Cd    47.5443    48.0000     0.4557     1.6084     0.8886     0.7198

  Mayer bond orders larger than 0.100000
B(  0-H ,  1-Cd) :   0.8886 

-------
TIMINGS
-------

Total SCF time: 0 days 0 hours 5 min 52 sec 

Total time                  ....     352.709 sec
Sum of individual times     ....     352.677 sec  (100.0%)

SCF preparation             ....       0.158 sec  (  0.0%)
Fock matrix formation       ....     352.202 sec  ( 99.9%)
  Startup                   ....       0.041 sec  (  0.0% of F)
  Coulomb+Exchange Fock     ....     347.568 sec  ( 98.7% of F)
  XC integration            ....       4.483 sec  (  1.3% of F)
    XC Preparation          ....       0.000 sec  (  0.0% of XC)
    Basis function eval.    ....       1.590 sec  ( 35.5% of XC)
    Density eval.           ....       0.624 sec  ( 13.9% of XC)
    XC-Functional eval.     ....       0.315 sec  (  7.0% of XC)
    XC-Potential eval.      ....       1.818 sec  ( 40.5% of XC)
Diagonalization             ....       0.000 sec  (  0.0%)
Density matrix formation    ....       0.085 sec  (  0.0%)
Total Energy calculation    ....       0.024 sec  (  0.0%)
Population analysis         ....       0.031 sec  (  0.0%)
Orbital Transformation      ....       0.016 sec  (  0.0%)
Orbital Orthonormalization  ....       0.000 sec  (  0.0%)
DIIS solution               ....       0.095 sec  (  0.0%)
  MO trafo                  ....       0.000 sec  (  0.0 % of DIIS)
  Orb grad                  ....       0.000 sec  (  0.0 % of DIIS)
  Energy W gradient         ....       0.000 sec  (  0.0 % of DIIS)
  DIIS error                ....       0.002 sec  (  1.6 % of DIIS)
  DIIS work                 ....       0.072 sec  ( 76.1 % of DIIS)
  Form Q                    ....       0.000 sec  (  0.0 % of DIIS)
  Form QpQm                 ....       0.000 sec  (  0.0 % of DIIS)
  Exp/Cayley                ....       0.000 sec  (  0.0 % of DIIS)
  Orb update                ....       0.000 sec  (  0.0 % of DIIS)
  Wake-sleep                ....       0.013 sec  ( 13.7 % of DIIS)
SOSCF solution              ....       0.066 sec  (  0.0%)
  MO trafo                  ....       0.034 sec  ( 51.5 % of SOSCF)
  Orb grad                  ....       0.004 sec  (  6.8 % of SOSCF)
  Rot update                ....       0.010 sec  ( 15.3 % of SOSCF)
  Step                      ....       0.017 sec  ( 26.3 % of SOSCF)
Finished LeanSCF after 352.7 sec

Maximum memory used throughout the entire LEANSCF-calculation: 424.2 MB

------------------------------------------------------------------------------
                         ORCA PROPERTY INTEGRAL CALCULATIONS
------------------------------------------------------------------------------

GBWName                                   ... cdh_cpks.gbw
Number of atoms                           ...      2
Number of basis functions                 ...     91
Max core memory                           ...   1024 MB

Dipole integrals                          ... YES
Quadrupole integrals                      ...  NO
Linear momentum integrals                 ...  NO
Angular momentum integrals                ... YES
Higher moments length integrals           ...  NO
Higher moments velocity integrals         ...  NO
Kinetic energy integrals                  ... YES
GIAO right hand sides                     ...  NO
GIAO dipole derivative integrals          ...  NO
SOC integrals                             ... YES
EPR diamagnetic integrals (GIAO)          ...  NO
EPR gauge integrals                       ... YES
Field gradient integrals                  ...  NO (   0 nuclei)
Spin-dipole/Fermi contact integrals       ...  NO (   0 nuclei)
Contact density integrals                 ...  NO (   0 nuclei)
Nucleus-orbit integrals                   ...  NO (   0 nuclei)
Geometric perturbations                   ...  NO (   2 nuclei)

Choice of electric origin   ... Center of mass
Position of electric origin ... (  3.3357,  0.0000,  0.0000) 
Choice of magnetic origin   ... Center of nuclear charge
Position of magnetic origin ... (  3.2969,  0.0000,  0.0000) 

Calculating integrals                     ... Electric Dipole (Length)     done (  0.0 sec)
Calculating integrals                     ... Kinetic Energy               done (  0.0 sec)
Calculating integrals                     ... Angular Momentum  (MagOri)   done (  0.0 sec)
Calculating integrals                     ... EPR-gauge integrals          done (  0.0 sec)
  g-Tensor DSO: Zeff (2-electron approx.) ... YES 
Calculating integrals                     ... Spin-Orbit Coupling
  Spin-orbit operator                     ... Spin-Orbit Mean-Field (SOMF)
      1-El-Flag                           ...  1 ON
      Coulomb-Flag                        ...  2 ON (Via COSJ)
      Exchange-Flag                       ...  3 ON (AMFI type)
      DFT-Correlation Flag                ...  0 OFF
      Max-Center                          ...  4   
      Relativistic Picture Change         ... OFF     
  Electron density on the grid            ... done (%5.1 lf sec) NEL=     0.129825000
  SOC Coulomb terms                       ... done (%5.1 lf sec)
  One-electron part                       ... done (  0.0 sec)
  Two-electron DoJ,X=0,1 MaxCenter=1      ... done (211.2 sec)
  SOC integrals done (226.5 sec)

Property integrals calculated in 226.6 sec

Maximum memory used throughout the entire PROPINT-calculation: 1515.5 MB

-------------------------   --------------------
FINAL SINGLE POINT ENERGY     -5334.178262207721
-------------------------   --------------------

------------------------------------------------------------------------------
                            ORCA SCF RESPONSE CALCULATION
------------------------------------------------------------------------------

GBWName                                 ... cdh_cpks.gbw
Number of atoms                         ...      2
Number of basis functions               ...     91
Max core memory                         ...   1024 MB

Electric field perturbation             ...  NO
Quadrupolar field perturbation          ...  NO
Magnetic field perturbation (no GIAO)   ... YES
Magnetic field perturbation (with GIAO) ...  NO
Linear momentum (velocity) perturbation ...  NO
Spin-orbit coupling perturbation        ...  NO
Choice of electric origin               ... Center of mass
Position of electric origin             ...     3.335691     0.000000     0.000000
Choice of magnetic origin               ... Center of nuclear charge
Position of magnetic origin             ...     3.296916     0.000000     0.000000
Nuclear geometric perturbations         ...  NO (   6 perturbations)
Nucleus-orbit perturbations             ...  NO (   0 perturbations)
Spin-dipole/Fermi contact perturbations ...  NO (   0 perturbations)

Total number of real perturbations      ...      0
Total number of imaginary perturbations ...      3
Total number of triplet perturbations   ...      0
Total number of SOC perturbations       ...      0


                              ***************************
                              * IMAGINARY PERTURBATIONS *
                              ***************************



-------------------
SHARK CP-SCF DRIVER
-------------------

Dimension of the orbital basis          ...     91
Dimension of the CPSCF-problem          ...   3258
Number of operators                     ...      2
Max. number of iterations               ...    128
Convergence Tolerance                   ... 1.0e-03
Number of perturbations                 ...      3
Perturbation type                       ... IMAGINARY

----------------------------
POPLE LINEAR EQUATION SOLVER
----------------------------

  ITERATION   0:   ||err||_max =   1.0572e+00 (  28.9 sec   1/  3 done)
  ITERATION   1:   ||err||_max =   2.3673e-02 (  27.6 sec   1/  3 done)
  ITERATION   2:   ||err||_max =   1.1245e-03 (  30.4 sec   1/  3 done)
  ITERATION   3:   ||err||_max =   3.1169e-05 (  30.9 sec   3/  3 done)

CP-SCF equations solved in 117.8 sec
Response densities calculated in   0.0 sec

Maximum memory used throughout the entire SCFRESP-calculation: 425.4 MB

------------------------------------------------------------------------------
                              ORCA PROPERTY CALCULATIONS
------------------------------------------------------------------------------

GBWName                                 ... cdh_cpks.gbw
Number of atoms                         ...      2
Number of basis functions               ...     91
Max core memory                         ...   1024 MB

Electric properties:
Dipole moment                           ... YES
Quadrupole moment                       ...  NO
Static polarizability (Dipole/Dipole)   ...  NO
Static polarizability (Dipole/Quad.)    ...  NO
Static polarizability (Quad./Quad.)     ...  NO
Static polarizability (Velocity)        ...  NO

Atomic electric properties:
Dipole moment                           ...  NO
Quadrupole moment                       ...  NO
Static polarizability                   ...  NO

Choice of electric origin               ... Center of mass
Position of electric origin             ...     3.335691     0.000000     0.000000

General magnetic properties:
Magnetizability                         ...  NO

EPR properties:
g-Tensor (aka g-matrix)                 ... YES
Zero-Field splitting spin-orbit         ...  NO
Zero-field splitting spin-spin          ...  NO
Hyperfine couplings                     ...  NO (   0 nuclei)
Quadrupole couplings                    ...  NO (   0 nuclei)
Contact density                         ...  NO (   0 nuclei)

NMR properties:
Chemical shifts                         ...  NO (   0 nuclei)
Spin-rotation constants                 ...  NO (   0 nuclei)
Spin-spin couplings                     ...  NO (   0 nuclei,    0 pairs)

Choice of magnetic origin               ... Center of nuclear charge
Position of magnetic origin             ...     3.296916     0.000000     0.000000

Properties with geometric perturbations:
SCF Hessian                             ...  NO
IR spectrum                             ...  NO
VCD spectrum                            ...  NO
X-ray spectroscopy properties:
SCF XES/XAS/RIXS spectra                ...  NO


-------------
DIPOLE MOMENT
-------------

Method             : SCF
Type of density    : Electron Density
Multiplicity       :   2
Irrep              :   0
Energy             : -5334.1782622077207634 Eh
Relativity type    : 
Basis              : AO
                                X                 Y                 Z
Electronic contribution:      2.289798847       0.000000004       0.000000001
Nuclear contribution   :     -1.899928136       0.000000000       0.000000000
                        -----------------------------------------
Total Dipole Moment    :      0.389870712       0.000000004       0.000000001
                        -----------------------------------------
Magnitude (a.u.)       :      0.389870712
Magnitude (Debye)      :      0.990972595



--------------------
Rotational spectrum 
--------------------
 
Rotational constants in cm-1:             0.000000             5.319681             5.319681 
Rotational constants in MHz :             0.000000        159480.015727        159480.015727 

Dipole components along the rotational axes: 
x,y,z [a.u.] :     0.389871     0.000000     0.000000 
x,y,z [Debye]:     0.990973     0.000000     0.000000 

 

Dipole moment calculation done in   0.0 sec 

-------------------
ELECTRONIC G-MATRIX
-------------------

Method             : SCF
Type of density    : Spin Density
Type of derivative : Magnetic Field (no GIAOs) (Direction=X)
Multiplicity       :   2
Irrep              :   0
Relativity type    : 
Basis              : AO
The g-matrix: 
              2.0024633   -0.0000000   -0.0000000
             -0.0000000    1.9144823   -0.0000000
             -0.0000000   -0.0000000    1.9144823
DSO contribution to g-matrix:
              0.0002747    0.0000000    0.0000000
              0.0000000    0.0004244   -0.0000000
              0.0000000   -0.0000000    0.0004244
PSO contribution to g-matrix:
              0.0000000   -0.0000000   -0.0000000
             -0.0000000   -0.0881308   -0.0000000
             -0.0000000   -0.0000000   -0.0881308

Breakdown of the contributions
 gel          2.0023193    2.0023193    2.0023193
 gRMC        -0.0001307   -0.0001307   -0.0001307
 gDSO(1el)    0.0003435    0.0003435    0.0002223
 gDSO(2el)    0.0000809    0.0000809    0.0000523
 gDSO(tot)    0.0004244    0.0004244    0.0002747
 gPSO(1el)   -0.0943385   -0.0943385    0.0000000
 gPSO(2el)    0.0062077    0.0062077   -0.0000000
 gPSO(tot)   -0.0881308   -0.0881308    0.0000000
             ----------   ----------   ----------
 g(tot)       1.9144823    1.9144823    2.0024633 iso=  1.9438093
 Delta-g     -0.0878370   -0.0878370    0.0001440 iso= -0.0585100

 Orientation: 
  X           0.0000000   -0.0000000    1.0000000
  Y           0.0322274   -0.9994806   -0.0000000
  Z           0.9994806    0.0322274   -0.0000000

Notes:  (1) The g-matrix conforms to the "BgS" spin Hamiltonian convention. 
        (2) The principal values are square roots of the eigenvalues of g*gT.
        (3) Orientations are eigenvectors of g*gT written as column vectors.
        (4) Individual contributions are projections of the full matrices onto the eigenvectors of g*gT.
        (5) Tensor is right-handed.

-------------------------------
G-TENSOR ATOM AND BOND ANALYSIS
-------------------------------

 NOTE: We project onto the eigenvectors of the total g-matrix
       that means that contributions do not necessarily add up to the final total g-values
       However, the values should be close and indicate which atoms dominantly contribute

 NOTE: We ONLY analyze the PSO term here!

 H -  0 :   -0.0000006    -0.0000006     0.0000000   iso= -0.0000004  
 Cd-  1 :   -0.0881335 *  -0.0881335 *   0.0000000   iso= -0.0587557 *
           ------------- ------------- ------------- -----------------
 Total-1c   -0.0881342    -0.0881342     0.0000000        -0.0587561
 Total-2c    0.0000034     0.0000034    -0.0000000         0.0000023
 Total      -0.0881308    -0.0881308     0.0000000        -0.0587538

EPR g-tensor done in   0.1 sec 

Maximum memory used throughout the entire PROP-calculation: 107.8 MB

--------------------------------
SUGGESTED CITATIONS FOR THIS RUN
--------------------------------

Below you find a list of papers that are relevant to this ORCA run
We neither can nor want to force you to cite these papers, but we appreciate if you do
You receive ORCA, which is the product of decades of hard work by many enthusiastic individuals, for free
The only thing we kindly ask in return is that you cite our papers,
We deeply appreciate it, if you show your appreciation for ORCA by not just citing the generic ORCA reference.

Please note that relegating all ORCA citations to the supporting information does *not* help us.
SI sections are not indexed - citations you put there will not count into any citation statistics
But we need these citations in order to attract the funding resources that allow us to do what we are doing

Therefore, if you are a happy ORCA user, please consider citing a few of the papers listed below in the main body of your paper

In addition to the list printed below, the program has created the file cdh_cpks.bibtex that contains the list in bibtex format
You can import this file easily into all common literature databanks and citation aid programs


List of essential papers. We consider these as the minimum necessary citations

  1. Neese,F.
     Software update: the ORCA program system, version 5.0
     WIRES Comput. Molec. Sci., 2022 12(1)e1606
     doi.org/10.1002/wcms.1606

List of papers to cite with high priority. The work reported in these papers was absolutely
necessary for this run to complete.
Our perspective: the developers of density functionals and basis sets usually get cited in chemistry papers
Good! But without the algorithms to do something with them, the functionals or basis sets would not do anything.
Hence, in our opinion, the algorithm design and method developments papers are equally worthy of getting cited

  1. Neese,F.
     Prediction of electron paramagnetic resonance g values using coupled perturbed Hartree-Fock and Kohn-Sham theory
     J. Chem. Phys., 2001 115(24)11080-11096
     doi.org/10.1063/1.1419058
  2. Neese,F.
     Efficient and accurate approximations to the molecular spin-orbit coupling operator and their use in molecular g-tensor calculations
     J. Chem. Phys., 2005 122(3)Art. No. 034107
     doi.org/10.1063/1.1829047
  3. Neese,F.
     The SHARK Integral Generation and Digestion System
     J. Comp. Chem., 2022  1-16
     doi.org/10.1002/jcc.26942

List of suggested additional citations. These are papers that are important in the 'surrounding' of 
of this run, or papers that preceded the highly important papers. If you like your results we are grateful for a citation.

  1. Neese,F.
     The ORCA program system
     WIRES Comput. Molec. Sci., 2012 2(1)73-78
     doi.org/10.1002/wcms.81
  2. Neese,F.
     Software update: the ORCA program system, version 4.0
     WIRES Comput. Molec. Sci., 2018 8(1)1-6
     doi.org/10.1002/wcms.1327
  3. Neese,F.; Wennmohs,F.; Becker,U.; Riplinger,C.
     The ORCA quantum chemistry program package
     J. Chem. Phys., 2020 152 Art. No. L224108
     doi.org/10.1063/5.0004608

List of optional additional citations

  1. Neese,F.
     Approximate second-order SCF convergence for spin unrestricted wavefunctions
     Chem. Phys. Lett., 2000 325(1-3)93-98
     doi.org/10.1016/s0009-2614(00)00662-x

Timings for individual modules:

Sum of individual times          ...      706.784 sec (=  11.780 min)
Startup calculation              ...        7.824 sec (=   0.130 min)   1.1 %
SCF iterations                   ...      353.749 sec (=   5.896 min)  50.1 %
Property integrals               ...      226.778 sec (=   3.780 min)  32.1 %
SCF Response                     ...      118.193 sec (=   1.970 min)  16.7 %
Property calculations            ...        0.240 sec (=   0.004 min)   0.0 %
                             ****ORCA TERMINATED NORMALLY****
TOTAL RUN TIME: 0 days 0 hours 11 minutes 46 seconds 936 msec
