
                                 *****************
                                 * O   R   C   A *
                                 *****************

                                            #,                                       
                                            ###                                      
                                            ####                                     
                                            #####                                    
                                            ######                                   
                                           ########,                                 
                                     ,,################,,,,,                         
                               ,,#################################,,                 
                          ,,##########################################,,             
                       ,#########################################, ''#####,          
                    ,#############################################,,   '####,        
                  ,##################################################,,,,####,       
                ,###########''''           ''''###############################       
              ,#####''   ,,,,##########,,,,          '''####'''          '####       
            ,##' ,,,,###########################,,,                        '##       
           ' ,,###''''                  '''############,,,                           
         ,,##''                                '''############,,,,        ,,,,,,###''
      ,#''                                            '''#######################'''  
     '                                                          ''''####''''         
             ,#######,   #######,   ,#######,      ##                                
            ,#'     '#,  ##    ##  ,#'     '#,    #''#        ,####,   ,####,        
            ##       ##  ##   ,#'  ##            #'  '#       #'       #'  '#        
            ##       ##  #######   ##           ,######,      #####,   #    #        
            '#,     ,#'  ##    ##  '#,     ,#' ,#      #,     #,   #   #,  ,#        
             '#######'   ##     ##  '#######'  #'      '#     '####' # '####'        



                #########################################################
                #                        -***-                          #
                #          Department of theory and spectroscopy        #
                #                                                       #
                #                      Frank Neese                      #
                #                                                       #
                #     Directorship, Architecture, Infrastructure        #
                #                    SHARK, DRIVERS                     #
                #        Core code/Algorithms in most modules           #
                #                                                       #
                #        Max Planck Institute fuer Kohlenforschung      #
                #                Kaiser Wilhelm Platz 1                 #
                #                 D-45470 Muelheim/Ruhr                 #
                #                      Germany                          #
                #                                                       #
                #                  All rights reserved                  #
                #                        -***-                          #
                #########################################################


                         Program Version 6.0.0  -   RELEASE  -


 With contributions from (in alphabetic order):
   Daniel Aravena         : Magnetic Suceptibility
   Michael Atanasov       : Ab Initio Ligand Field Theory (pilot matlab implementation)
   Alexander A. Auer      : GIAO ZORA, VPT2 properties, NMR spectrum
   Ute Becker             : All parallelization in ORCA, NUMFREQ, NUMCALC
   Giovanni Bistoni       : ED, misc. LED, open-shell LED, HFLD
   Martin Brehm           : Molecular dynamics
   Dmytro Bykov           : pre 5.0 version of the SCF Hessian
   Marcos Casanova-Páez   : Triplet and SCS-CIS(D). UHF-(DLPNO)-IP/EA/STEOM-CCSD. UHF-CVS-IP/STEOM-CCSD
   Vijay G. Chilkuri      : MRCI spin determinant printing, contributions to CSF-ICE
   Pauline Colinet        : FMM embedding
   Dipayan Datta          : RHF DLPNO-CCSD density
   Achintya Kumar Dutta   : EOM-CC, STEOM-CC
   Nicolas Foglia         : Exact transition moments, OPA infrastructure, MCD improvements
   Dmitry Ganyushin       : Spin-Orbit,Spin-Spin,Magnetic field MRCI
   Miquel Garcia          : C-PCM and meta-GGA Hessian, CCSD/C-PCM, Gaussian charge scheme
   Tiago L. C. Gouveia    : GS-ROHF, GS-ROCIS
   Yang Guo               : DLPNO-NEVPT2, F12-NEVPT2, CIM, IAO-localization
   Andreas Hansen         : Spin unrestricted coupled pair/coupled cluster methods
   Ingolf Harden          : AUTO-CI MPn and infrastructure 
   Benjamin Helmich-Paris : MC-RPA, TRAH-(SCF,CASSCF), AVAS, COSX integrals, SCF dyn. polar.
   Lee Huntington         : MR-EOM, pCC
   Robert Izsak           : Overlap fitted RIJCOSX, COSX-SCS-MP3, EOM
   Riya Kayal             : Wick's Theorem for AUTO-CI, AUTO-CI UHF-CCSDT
   Emily Kempfer          : AUTO-CI, RHF CISDT and CCSDT
   Christian Kollmar      : KDIIS, OOCD, Brueckner-CCSD(T), CCSD density, CASPT2, CASPT2-K, improved NEVPT2
   Axel Koslowski         : Symmetry handling
   Simone Kossmann        : Meta GGA functionals, TD-DFT gradient, OOMP2, (MP2 Hessian; deprecated post 5.0)
   Lucas Lang             : DCDCAS
   Marvin Lechner         : AUTO-CI (C++ implementation), FIC-MRCC
   Spencer Leger          : CASSCF response
   Dagmar Lenk            : GEPOL surface, SMD, ORCA-2-JSON
   Dimitrios Liakos       : Extrapolation schemes; Compound Job, initial MDCI parallelization
   Dimitrios Manganas     : Further ROCIS development; embedding schemes. LFT, Crystal Embedding
   Dimitrios Pantazis     : SARC Basis sets
   Anastasios Papadopoulos: AUTO-CI, single reference methods and gradients
   Taras Petrenko         : pre 6.0 DFT Hessian and TD-DFT gradient, (ASA, deprecated), ECA, 1-Electron XAS/XES, NRVS
   Peter Pinski           : DLPNO-MP2, DLPNO-MP2 Gradient
   Christoph Reimann      : Effective Core Potentials
   Marius Retegan         : Local ZFS, SOC
   Christoph Riplinger    : Optimizer, TS searches, QM/MM, DLPNO-CCSD(T), (RO)-DLPNO pert. Triples
   Michael Roemelt        : Original ROCIS implementation
   Masaaki Saitow         : Open-shell DLPNO-CCSD energy and density
   Barbara Sandhoefer     : DKH picture change effects
   Kantharuban Sivalingam : CASSCF convergence/infrastructure, NEVPT2 and variants, FIC-MRCI
   Bernardo de Souza      : ESD, SOC TD-DFT
   Georgi Stoychev        : AutoAux, RI-MP2 NMR, DLPNO-MP2 response, X2C
   Van Anh Tran           : RI-MP2 g-tensors
   Willem Van den Heuvel  : Paramagnetic NMR
   Zikuan Wang            : NOTCH, Electric field optimization 
   Frank Wennmohs         : Technical directorship and infrastructure
   Hang Xu                : AUTO-CI-Response properties 


 We gratefully acknowledge several colleagues who have allowed us to
 interface, adapt or use parts of their codes:
   Stefan Grimme, W. Hujo, H. Kruse, P. Pracht,  : VdW corrections, initial TS optimization,
                  C. Bannwarth, S. Ehlert,         DFT functionals, gCP, sTDA/sTD-DF
                  L. Wittmann, M. Mueller
   Ed Valeev, F. Pavosevic, A. Kumar             : LibInt (2-el integral package), F12 methods
   Garnet Chan, S. Sharma, J. Yang, R. Olivares  : DMRG
   Ulf Ekstrom                                   : XCFun DFT Library
   Mihaly Kallay                                 : mrcc  (arbitrary order and MRCC methods)
   Frank Weinhold                                : gennbo (NPA and NBO analysis)
   Simon Mueller                                 : openCOSMO-RS
   Christopher J. Cramer and Donald G. Truhlar   : smd solvation model
   Lars Goerigk                                  : TD-DFT with DH, B97 family of functionals
   V. Asgeirsson, H. Jonsson                     : NEB implementation
   FAccTs GmbH                                   : IRC, NEB, NEB-TS, DLPNO-Multilevel, CI-OPT
                                                   MM, QMMM, 2- and 3-layer-ONIOM, Crystal-QMMM,
                                                   LR-CPCM, SF, NACMEs, symmetry and pop. for TD-DFT,
                                                   nearIR, NL-DFT gradient (VV10), updates on ESD,
                                                   ML-optimized integration grids, MBIS, APM,
                                                   GOAT, DOCKER, SOLVATOR, interface openCOSMO-RS
   S Lehtola, MJT Oliveira, MAL Marques          : LibXC Library
   Liviu Ungur et al                             : ANISO software


 Your calculation uses the libint2 library for the computation of 2-el integrals
 For citations please refer to: http://libint.valeyev.net

 Your ORCA version has been built with support for libXC version: 6.2.2
 For citations please refer to: https://libxc.gitlab.io

 This ORCA versions uses:
   CBLAS   interface :  Fast vector & matrix operations
   LAPACKE interface :  Fast linear algebra routines
   SCALAPACK package :  Parallel linear algebra routines
   Shared memory     :  Shared parallel matrices
   BLAS/LAPACK       :  OpenBLAS 0.3.27  USE64BITINT DYNAMIC_ARCH NO_AFFINITY SkylakeX SINGLE_THREADED
        Core in use  :  SkylakeX
   Copyright (c) 2011-2014, The OpenBLAS Project




************************************
The Z-Matrix will be read from file: irh2.gzmt
************************************


BuildBasisSet found the ANOflag in the standard basis to be TRUE and will set the global ANO flag
================================================================================

----- Orbital basis set information -----
Your calculation utilizes the basis: ANO-RCC-TZP
   H, He:       P.-O. Widmark, P.-A. Malmqvist, and B. O. Roos, Theor. Chim. Acta 77, 291 (1990).
   s block:     B. O. Roos, V. Veryazov and P.-O. Widmark, Theor. Chem. Acc. 111, 345 (2004).
   p block:     B. O. Roos, R. Lindh, P.-A. Malmqvist, V. Veryazov, and P.-O. Widmark, J. Phys. Chem. A 108, 2851 (2004).
   d block:     B. O. Roos, R. Lindh, P.-A. Malmqvist, V. Veryazov, and P.-O. Widmark, J. Phys. Chem. A 109, 6575 (2005).
   actinides:   B. O. Roos, R. Lindh, P.-A. Malmqvist, V. Veryazov, and P.-O. Widmark, Chem. Phys. Letters 409, 295 (2005).
   lanthanides: B. O. Roos, R. Lindh, P.-A. Malmqvist, V. Veryazov, P.-O. Widmark and A. C. Borin, J. Phys. Chem. A 112, 11431 (2008).

================================================================================
                                        WARNINGS
                       Please study these warnings very carefully!
================================================================================


WARNING: The basis set has functions with high angular momentum (Lmax>4).
         We might need to increase small grids for safety reasons and
         in general, DEFGRID3 is recommend for such cases.
  ===> : GRIDX1, TD-DFT and the CP-SCF AngGrids will be increased to at least 2


WARNING: your system is open-shell and RHF/RKS was chosen
  ===> : WILL SWITCH to UHF/UKS


================================================================================
                                       INPUT FILE
================================================================================
NAME = irh2_cpks_rotate.inp
|  1> !B3LYP ANO-RCC-TZP SOMF(1X) LARGEPRINT PrintMOs
|  2> 
|  3> %METHOD
|  4>  Functional B3LYP_G
|  5>  RI false
|  6> END
|  7> 
|  8> %SCF
|  9>  MaxIter 500			# Max. no. of SCF iterations
| 10>  Thresh 1e-12			# Threshold for neglecting integrals
| 11>  TolE 1e-8			# Energy convergence threshold
| 12>  Rotate
| 13>   {39,40}
| 14>  END
| 15> END
| 16> 
| 17> %EPRNMR 			# Control of EPR and NMR calculations
| 18>  gtensor 1			# Calculate the g-tensor 
| 19>  ori CenterOfNucCharge		# origin for magnetic properties: CenterOfElCharge, CenterOfNucCharge
| 20>  printlevel 4			# detailed information
| 21> END
| 22> 
| 23> * gzmtfile 0 2 irh2.gzmt 	# Coordinates
| 24> 
| 25> 
| 26>                          ****END OF INPUT****
================================================================================

                       ****************************
                       * Single Point Calculation *
                       ****************************

---------------------------------
CARTESIAN COORDINATES (ANGSTROEM)
---------------------------------
  Ir     0.000000    0.000000    0.000000
  H      1.540000    0.000000    0.000000
  H     -0.051059    1.539153    0.000000

----------------------------
CARTESIAN COORDINATES (A.U.)
----------------------------
  NO LB      ZA    FRAG     MASS         X           Y           Z
   0 Ir   77.0000    0   192.220    0.000000    0.000000    0.000000
   1 H     1.0000    0     1.008    2.910178    0.000000    0.000000
   2 H     1.0000    0     1.008   -0.096487    2.908578    0.000000

--------------------------------
INTERNAL COORDINATES (ANGSTROEM)
--------------------------------
 Ir     0   0   0     0.000000000000     0.00000000     0.00000000
 H      1   0   0     1.540000000000     0.00000000     0.00000000
 H      1   2   0     1.540000000000    91.90000000     0.00000000

---------------------------
INTERNAL COORDINATES (A.U.)
---------------------------
 Ir     0   0   0     0.000000000000     0.00000000     0.00000000
 H      1   0   0     2.910178246239     0.00000000     0.00000000
 H      1   2   0     2.910178246239    91.90000000     0.00000000

---------------------
BASIS SET INFORMATION
---------------------
There are 2 groups of distinct atoms

 Group   1 Type Ir  : 192s147p75d33f8g2h contracted to 8s7p5d3f2g1h pattern {2424242424242424/21212121212121/1515151515/111111/44/2}
 Group   2 Type H   : 32s12p6d contracted to 4s3p2d pattern {8888/444/33}

Atom   0Ir   basis set group =>   1
Atom   1H    basis set group =>   2
Atom   2H    basis set group =>   2

-------------------------
BASIS SET IN INPUT FORMAT
-------------------------

 # Basis set for element : H 
 NewGTO H 
 S 8 
   1     188.6144500000      0.0009638500
   2      28.2765960000      0.0074919600
   3       6.4248300000      0.0375954101
   4       1.8150410000      0.1433949804
   5       0.5910630000      0.3486363010
   6       0.2121490000      0.4382973612
   7       0.0798910000      0.1651066105
   8       0.0279620000      0.0210228701
 S 8 
   1     188.6144500000     -0.0013119000
   2      28.2765960000     -0.0103451000
   3       6.4248300000     -0.0504952998
   4       1.8150410000     -0.2073854991
   5       0.5910630000     -0.4350884981
   6       0.2121490000     -0.0247296999
   7       0.0798910000      0.3225259886
   8       0.0279620000      0.7072753770
 S 8 
   1     188.6144500000      0.0024224000
   2      28.2765960000      0.0203381700
   3       6.4248300000      0.0896393498
   4       1.8150410000      0.4422907090
   5       0.5910630000      0.5757143887
   6       0.2121490000     -0.9802889977
   7       0.0798910000     -0.6721537984
   8       0.0279620000      1.1417684974
 S 8 
   1     188.6144500000     -0.0115701006
   2      28.2765960000     -0.0837154045
   3       6.4248300000     -0.4451663240
   4       1.8150410000     -1.1462710617
   5       0.5910630000      2.5031872348
   6       0.2121490000     -1.5828490853
   7       0.0798910000      0.0309656917
   8       0.0279620000      0.3086286566
 P 4 
   1       2.3050000000      0.1127901896
   2       0.8067500000      0.4185075284
   3       0.2823620000      0.4700077282
   4       0.0988270000      0.1826260293
 P 4 
   1       2.3050000000     -0.2108687968
   2       0.8067500000     -0.5943795909
   3       0.2823620000      0.0896888786
   4       0.0988270000      0.8611633869
 P 4 
   1       2.3050000000      0.7599500731
   2       0.8067500000      0.1646158920
   3       0.2823620000     -1.3710139334
   4       0.0988270000      1.0593154486
 D 3 
   1       1.8190000000      0.2705134090
   2       0.7276000000      0.5510124980
   3       0.2910400000      0.3310866388
 D 3 
   1       1.8190000000     -0.7938035094
   2       0.7276000000     -0.0914252011
   3       0.2910400000      0.8620033502
  end;

 # Basis set for element : Ir
 NewGTO Ir
 S 24 
   1  51880683.0000000000      0.0009388000
   2  11624292.8000000007      0.0013564900
   3  3221164.9600000000      0.0034974900
   4  982303.7160000000      0.0067371500
   5  324727.0930000000      0.0139353000
   6  114426.3150000000      0.0270047301
   7   42611.1833000000      0.0528375402
   8   16599.7777000000      0.1011335804
   9    6702.0091600000      0.1871987607
  10    2792.8398300000      0.3007661811
  11    1201.0107300000      0.3373007512
  12     529.9119170000      0.1702136106
  13     241.7391090000      0.0140773701
  14     114.6703830000      0.0028768700
  15      56.0256996000     -0.0023376300
  16      27.9955045000      0.0016419300
  17      13.7356572000     -0.0010604300
  18       6.6304839800      0.0006163300
  19       3.1212774300     -0.0003023800
  20       1.2789678300      0.0001327500
  21       0.4971212800     -0.0000678300
  22       0.1988485100      0.0000369400
  23       0.0795394000     -0.0000171800
  24       0.0318157600      0.0000049400
 S 24 
   1  51880683.0000000000     -0.0003606800
   2  11624292.8000000007     -0.0005221500
   3  3221164.9600000000     -0.0013490300
   4  982303.7160000000     -0.0026111000
   5  324727.0930000000     -0.0054416600
   6  114426.3150000000     -0.0106832600
   7   42611.1833000000     -0.0213629200
   8   16599.7777000000     -0.0424214099
   9    6702.0091600000     -0.0838715999
  10    2792.8398300000     -0.1516147398
  11    1201.0107300000     -0.2049106597
  12     529.9119170000     -0.0579586199
  13     241.7391090000      0.4256602794
  14     114.6703830000      0.5712975292
  15      56.0256996000      0.1508710698
  16      27.9955045000      0.0061733300
  17      13.7356572000     -0.0014782300
  18       6.6304839800      0.0009219600
  19       3.1212774300     -0.0005890700
  20       1.2789678300      0.0002804400
  21       0.4971212800     -0.0001412400
  22       0.1988485100      0.0000783600
  23       0.0795394000     -0.0000365100
  24       0.0318157600      0.0000105500
 S 24 
   1  51880683.0000000000      0.0001721500
   2  11624292.8000000007      0.0002493000
   3  3221164.9600000000      0.0006443200
   4  982303.7160000000      0.0012480300
   5  324727.0930000000      0.0026043500
   6  114426.3150000000      0.0051232400
   7   42611.1833000000      0.0102838101
   8   16599.7777000000      0.0205411901
   9    6702.0091600000      0.0410950102
  10    2792.8398300000      0.0758329504
  11    1201.0107300000      0.1064412805
  12     529.9119170000      0.0239612001
  13     241.7391090000     -0.3434623218
  14     114.6703830000     -0.6426195333
  15      56.0256996000      0.1067578405
  16      27.9955045000      0.9169422347
  17      13.7356572000      0.3061190316
  18       6.6304839800      0.0048100300
  19       3.1212774300      0.0029952000
  20       1.2789678300     -0.0010241500
  21       0.4971212800      0.0003927300
  22       0.1988485100     -0.0002176900
  23       0.0795394000      0.0000980400
  24       0.0318157600     -0.0000287400
 S 24 
   1  51880683.0000000000     -0.0000854300
   2  11624292.8000000007     -0.0001237200
   3  3221164.9600000000     -0.0003197700
   4  982303.7160000000     -0.0006195500
   5  324727.0930000000     -0.0012930600
   6  114426.3150000000     -0.0025456500
   7   42611.1833000000     -0.0051120100
   8   16599.7777000000     -0.0102339799
   9    6702.0091600000     -0.0205050799
  10    2792.8398300000     -0.0381148597
  11    1201.0107300000     -0.0537687696
  12     529.9119170000     -0.0117921799
  13     241.7391090000      0.1953836886
  14     114.6703830000      0.3940431371
  15      56.0256996000     -0.0998293793
  16      27.9955045000     -1.1011318820
  17      13.7356572000     -0.1792850487
  18       6.6304839800      1.1028760420
  19       3.1212774300      0.3693596673
  20       1.2789678300     -0.0019142700
  21       0.4971212800      0.0042935800
  22       0.1988485100     -0.0020234400
  23       0.0795394000      0.0009216000
  24       0.0318157600     -0.0002679100
 S 24 
   1  51880683.0000000000      0.0000361800
   2  11624292.8000000007      0.0000523900
   3  3221164.9600000000      0.0001354400
   4  982303.7160000000      0.0002623600
   5  324727.0930000000      0.0005478500
   6  114426.3150000000      0.0010778800
   7   42611.1833000000      0.0021676300
   8   16599.7777000000      0.0043325600
   9    6702.0091600000      0.0087125800
  10    2792.8398300000      0.0161394301
  11    1201.0107300000      0.0230171901
  12     529.9119170000      0.0045520900
  13     241.7391090000     -0.0842429603
  14     114.6703830000     -0.1790856607
  15      56.0256996000      0.0569581802
  16      27.9955045000      0.5598406923
  17      13.7356572000      0.1066611804
  18       6.6304839800     -0.9995575341
  19       3.1212774300     -0.3710454015
  20       1.2789678300      1.0851505945
  21       0.4971212800      0.4036525717
  22       0.1988485100     -0.0326456201
  23       0.0795394000      0.0154156201
  24       0.0318157600     -0.0050656100
 S 24 
   1  51880683.0000000000     -0.0000102900
   2  11624292.8000000007     -0.0000149000
   3  3221164.9600000000     -0.0000385300
   4  982303.7160000000     -0.0000746300
   5  324727.0930000000     -0.0001558500
   6  114426.3150000000     -0.0003066000
   7   42611.1833000000     -0.0006167500
   8   16599.7777000000     -0.0012323000
   9    6702.0091600000     -0.0024799100
  10    2792.8398300000     -0.0045903000
  11    1201.0107300000     -0.0065607701
  12     529.9119170000     -0.0012687300
  13     241.7391090000      0.0240186902
  14     114.6703830000      0.0515739705
  15      56.0256996000     -0.0170692601
  16      27.9955045000     -0.1637983314
  17      13.7356572000     -0.0332850003
  18       6.6304839800      0.3253794128
  19       3.1212774300      0.1272868711
  20       1.2789678300     -0.5197146945
  21       0.4971212800     -0.3455738330
  22       0.1988485100      0.4320857338
  23       0.0795394000      0.6343844155
  24       0.0318157600      0.2375422521
 S 24 
   1  51880683.0000000000      0.0000121600
   2  11624292.8000000007      0.0000176100
   3  3221164.9600000000      0.0000455300
   4  982303.7160000000      0.0000882100
   5  324727.0930000000      0.0001841700
   6  114426.3150000000      0.0003624200
   7   42611.1833000000      0.0007286800
   8   16599.7777000000      0.0014571700
   9    6702.0091600000      0.0029289000
  10    2792.8398300000      0.0054321300
  11    1201.0107300000      0.0077377300
  12     529.9119170000      0.0015496300
  13     241.7391090000     -0.0285780300
  14     114.6703830000     -0.0607773299
  15      56.0256996000      0.0194966700
  16      27.9955045000      0.1980832397
  17      13.7356572000      0.0340833700
  18       6.6304839800     -0.3904799695
  19       3.1212774300     -0.1846805597
  20       1.2789678300      0.8624992388
  21       0.4971212800      0.0858298799
  22       0.1988485100     -1.0206902986
  23       0.0795394000     -0.6346912391
  24       0.0318157600      1.4410328680
 S 24 
   1  51880683.0000000000     -0.0000267000
   2  11624292.8000000007     -0.0000386400
   3  3221164.9600000000     -0.0001000100
   4  982303.7160000000     -0.0001933800
   5  324727.0930000000     -0.0004050800
   6  114426.3150000000     -0.0007928100
   7   42611.1833000000     -0.0016085500
   8   16599.7777000000     -0.0031705800
   9    6702.0091600000     -0.0065164300
  10    2792.8398300000     -0.0116738700
  11    1201.0107300000     -0.0177306200
  12     529.9119170000     -0.0013013600
  13     241.7391090000      0.0571526300
  14     114.6703830000      0.1502201001
  15      56.0256996000     -0.0824346501
  16      27.9955045000     -0.3694894203
  17      13.7356572000     -0.2189376102
  18       6.6304839800      1.2322918410
  19       3.1212774300     -0.0369262400
  20       1.2789678300     -2.4187944420
  21       0.4971212800      2.3687674120
  22       0.1988485100      0.5845371405
  23       0.0795394000     -2.5464520621
  24       0.0318157600      1.5242144713
 P 21 
   1  14238507.0000000000      0.0000308200
   2  2455060.9500000002      0.0000881500
   3  548575.9090000000      0.0002668700
   4  143820.3620000000      0.0007778600
   5   42683.9203000000      0.0023198700
   6   14117.3866000000      0.0070405200
   7    5160.5027500000      0.0213445000
   8    2060.3911100000      0.0620459201
   9     883.6370270000      0.1591926103
  10     399.6563790000      0.3163196106
  11     188.3281840000      0.3894760108
  12      91.3135305000      0.2126824404
  13      44.2713926000      0.0297359801
  14      22.0667793000      0.0003324600
  15      10.8547884000     -0.0002281900
  16       5.2101626200      0.0000674800
  17       2.4173271500     -0.0000596400
  18       0.9669308600      0.0000308200
  19       0.3867723400     -0.0000144400
  20       0.1547089300      0.0000070800
  21       0.0618835700     -0.0000022200
 P 21 
   1  14238507.0000000000     -0.0000157600
   2  2455060.9500000002     -0.0000451300
   3  548575.9090000000     -0.0001369000
   4  143820.3620000000     -0.0004000200
   5   42683.9203000000     -0.0011990600
   6   14117.3866000000     -0.0036611600
   7    5160.5027500000     -0.0112453499
   8    2060.3911100000     -0.0333271397
   9     883.6370270000     -0.0888997892
  10     399.6563790000     -0.1858409582
  11     188.3281840000     -0.2308239678
  12      91.3135305000      0.0437246196
  13      44.2713926000      0.5458126948
  14      22.0667793000      0.4470349858
  15      10.8547884000      0.0740715593
  16       5.2101626200      0.0033645000
  17       2.4173271500     -0.0004994100
  18       0.9669308600      0.0002597600
  19       0.3867723400     -0.0001657400
  20       0.1547089300      0.0000763500
  21       0.0618835700     -0.0000243000
 P 21 
   1  14238507.0000000000      0.0000077600
   2  2455060.9500000002      0.0000222100
   3  548575.9090000000      0.0000673900
   4  143820.3620000000      0.0001971100
   5   42683.9203000000      0.0005911700
   6   14117.3866000000      0.0018092500
   7    5160.5027500000      0.0055673600
   8    2060.3911100000      0.0166027500
   9     883.6370270000      0.0446133300
  10     399.6563790000      0.0947854899
  11     188.3281840000      0.1169785999
  12      91.3135305000     -0.0542247499
  13      44.2713926000     -0.4358844295
  14      22.0667793000     -0.3058488997
  15      10.8547884000      0.5159030694
  16       5.2101626200      0.6302223193
  17       2.4173271500      0.1174603399
  18       0.9669308600      0.0021465900
  19       0.3867723400      0.0000196000
  20       0.1547089300      0.0000580400
  21       0.0618835700     -0.0000308200
 P 21 
   1  14238507.0000000000     -0.0000030100
   2  2455060.9500000002     -0.0000086400
   3  548575.9090000000     -0.0000261900
   4  143820.3620000000     -0.0000767300
   5   42683.9203000000     -0.0002296100
   6   14117.3866000000     -0.0007056900
   7    5160.5027500000     -0.0021610900
   8    2060.3911100000     -0.0064969600
   9     883.6370270000     -0.0173394701
  10     399.6563790000     -0.0373947901
  11     188.3281840000     -0.0450686802
  12      91.3135305000      0.0225233501
  13      44.2713926000      0.1925296207
  14      22.0667793000      0.1134625004
  15      10.8547884000     -0.2888229510
  16       5.2101626200     -0.4658186216
  17       2.4173271500      0.3067792711
  18       0.9669308600      0.7449856626
  19       0.3867723400      0.1975225807
  20       0.1547089300      0.0109533900
  21       0.0618835700     -0.0008655300
 P 21 
   1  14238507.0000000000      0.0000013300
   2  2455060.9500000002      0.0000038100
   3  548575.9090000000      0.0000115500
   4  143820.3620000000      0.0000338600
   5   42683.9203000000      0.0001011500
   6   14117.3866000000      0.0003116900
   7    5160.5027500000      0.0009511900
   8    2060.3911100000      0.0028733500
   9     883.6370270000      0.0076275600
  10     399.6563790000      0.0165862501
  11     188.3281840000      0.0196877401
  12      91.3135305000     -0.0097221600
  13      44.2713926000     -0.0876679403
  14      22.0667793000     -0.0472488202
  15      10.8547884000      0.1328115205
  16       5.2101626200      0.2329729208
  17       2.4173271500     -0.2126425507
  18       0.9669308600     -0.5172577118
  19       0.3867723400      0.2348681508
  20       0.1547089300      0.7017276624
  21       0.0618835700      0.2663569409
 P 21 
   1  14238507.0000000000     -0.0000028700
   2  2455060.9500000002     -0.0000082400
   3  548575.9090000000     -0.0000248600
   4  143820.3620000000     -0.0000735600
   5   42683.9203000000     -0.0002163800
   6   14117.3866000000     -0.0006828900
   7    5160.5027500000     -0.0020171100
   8    2060.3911100000     -0.0063540400
   9     883.6370270000     -0.0160335000
  10     399.6563790000     -0.0373487600
  11     188.3281840000     -0.0385888800
  12      91.3135305000      0.0128074800
  13      44.2713926000      0.2187226499
  14      22.0667793000      0.0428737600
  15      10.8547884000     -0.2244104099
  16       5.2101626200     -0.7073835198
  17       2.4173271500      1.1285778497
  18       0.9669308600      0.3378638899
  19       0.3867723400     -1.4892434896
  20       0.1547089300      0.4769534999
  21       0.0618835700      0.5531230999
 P 21 
   1  14238507.0000000000      0.0000035900
   2  2455060.9500000002      0.0000103200
   3  548575.9090000000      0.0000310900
   4  143820.3620000000      0.0000921700
   5   42683.9203000000      0.0002703900
   6   14117.3866000000      0.0008572100
   7    5160.5027500000      0.0025182600
   8    2060.3911100000      0.0079967400
   9     883.6370270000      0.0200383000
  10     399.6563790000      0.0472242799
  11     188.3281840000      0.0474576099
  12      91.3135305000     -0.0181370600
  13      44.2713926000     -0.2897720196
  14      22.0667793000     -0.0195109400
  15      10.8547884000      0.3330367195
  16       5.2101626200      0.9134382587
  17       2.4173271500     -2.3101041268
  18       0.9669308600      1.9159109273
  19       0.3867723400     -0.2389560297
  20       0.1547089300     -1.3170166882
  21       0.0618835700      1.2137132783
 D 15 
   1    6702.0091600000      0.0004464000
   2    2792.8398300000      0.0013603400
   3    1201.0107300000      0.0070257100
   4     529.9119170000      0.0294225900
   5     241.7391090000      0.1024639500
   6     114.6703830000      0.2550843301
   7      56.0256996000      0.4011493801
   8      27.9955045000      0.3220912201
   9      13.7356572000      0.0951676200
  10       6.6304839800      0.0050927500
  11       3.1212774300      0.0011108500
  12       1.2789678300     -0.0002803500
  13       0.5115891300      0.0001352300
  14       0.2046348500     -0.0000736900
  15       0.0818539400      0.0000221100
 D 15 
   1    6702.0091600000     -0.0002291400
   2    2792.8398300000     -0.0006897800
   3    1201.0107300000     -0.0036349800
   4     529.9119170000     -0.0151936099
   5     241.7391090000     -0.0542870897
   6     114.6703830000     -0.1357596893
   7      56.0256996000     -0.2068395590
   8      27.9955045000     -0.0629607797
   9      13.7356572000      0.3455179483
  10       6.6304839800      0.5229033075
  11       3.1212774300      0.2498787788
  12       1.2789678300      0.0265120499
  13       0.5115891300     -0.0007732600
  14       0.2046348500      0.0007238400
  15       0.0818539400     -0.0001445800
 D 15 
   1    6702.0091600000      0.0000649800
   2    2792.8398300000      0.0001904700
   3    1201.0107300000      0.0010322900
   4     529.9119170000      0.0042407000
   5     241.7391090000      0.0154252801
   6     114.6703830000      0.0380956203
   7      56.0256996000      0.0588411605
   8      27.9955045000      0.0090033201
   9      13.7356572000     -0.1186796710
  10       6.6304839800     -0.1855435416
  11       3.1212774300      0.0276440302
  12       1.2789678300      0.4087503835
  13       0.5115891300      0.4648001040
  14       0.2046348500      0.2531639422
  15       0.0818539400      0.0767186407
 D 15 
   1    6702.0091600000     -0.0000692500
   2    2792.8398300000     -0.0001949200
   3    1201.0107300000     -0.0010999800
   4     529.9119170000     -0.0043991200
   5     241.7391090000     -0.0163505200
   6     114.6703830000     -0.0395816300
   7      56.0256996000     -0.0628314100
   8      27.9955045000     -0.0067001500
   9      13.7356572000      0.1261673300
  10       6.6304839800      0.2089026200
  11       3.1212774300     -0.0652236100
  12       1.2789678300     -0.6421565201
  13       0.5115891300     -0.0464380900
  14       0.2046348500      0.5464143801
  15       0.0818539400      0.4212974901
 D 15 
   1    6702.0091600000      0.0000940500
   2    2792.8398300000      0.0001890500
   3    1201.0107300000      0.0014908000
   4     529.9119170000      0.0048291100
   5     241.7391090000      0.0212390600
   6     114.6703830000      0.0438591199
   7      56.0256996000      0.0874529099
   8      27.9955045000     -0.0143662600
   9      13.7356572000     -0.1150917999
  10       6.6304839800     -0.3797738696
  11       3.1212774300      0.3596352196
  12       1.2789678300      0.7739931891
  13       0.5115891300     -0.9890391289
  14       0.2046348500     -0.1885587898
  15       0.0818539400      0.8260812091
 F 11 
   1     399.6563790000      0.0017835400
   2     188.3281840000      0.0066827400
   3      91.3135305000      0.0319797099
   4      44.2713926000      0.0992786997
   5      22.0667793000      0.2257179692
   6      10.8547884000      0.3464755188
   7       5.2101626200      0.3507289788
   8       2.4173271500      0.2207339592
   9       1.0236788100      0.0676622898
  10       0.4094715200      0.0039501800
  11       0.1637886100      0.0008663700
 F 11 
   1     399.6563790000     -0.0006234300
   2     188.3281840000     -0.0021397400
   3      91.3135305000     -0.0110610300
   4      44.2713926000     -0.0325915701
   5      22.0667793000     -0.0800624103
   6      10.8547884000     -0.1173220004
   7       5.2101626200     -0.1254222105
   8       2.4173271500      0.0857137103
   9       1.0236788100      0.5212678319
  10       0.4094715200      0.4601201617
  11       0.1637886100      0.1271295105
 F 11 
   1     399.6563790000      0.0008960400
   2     188.3281840000      0.0015513600
   3      91.3135305000      0.0149159800
   4      44.2713926000      0.0296748200
   5      22.0667793000      0.1117299201
   6      10.8547884000      0.1163291202
   7       5.2101626200      0.2552892203
   8       2.4173271500     -0.4721374306
   9       1.0236788100     -0.5870321108
  10       0.4094715200      0.6174616908
  11       0.1637886100      0.3945108905
 G 4 
   1       3.2047320000      0.0873264896
   2       1.2818930000      0.6085570073
   3       0.5127570000      0.4287608281
   4       0.2051030000      0.0927401996
 G 4 
   1       3.2047320000     -0.3167768897
   2       1.2818930000     -0.6574927494
   3       0.5127570000      0.7538322293
   4       0.2051030000      0.2963469997
 H 2 
   1       1.6023000000      0.6415785102
   2       0.6409000000      0.5039845502
  end;

------------------------------------------------------------------------------
                             ORCA STARTUP CALCULATIONS
------------------------------------------------------------------------------
------------------------------------------------------------------------------
                   ___                                                        
                  /   \      - P O W E R E D   B Y -                         
                 /     \                                                     
                 |  |  |   _    _      __       _____    __    __             
                 |  |  |  | |  | |    /  \     |  _  \  |  |  /  |          
                  \  \/   | |  | |   /    \    | | | |  |  | /  /          
                 / \  \   | |__| |  /  /\  \   | |_| |  |  |/  /          
                |  |  |   |  __  | /  /__\  \  |    /   |      \           
                |  |  |   | |  | | |   __   |  |    \   |  |\   \          
                \     /   | |  | | |  |  |  |  | |\  \  |  | \   \       
                 \___/    |_|  |_| |__|  |__|  |_| \__\ |__|  \__/        
                                                                              
                      - O R C A' S   B I G   F R I E N D -                    
                                      &                                       
                       - I N T E G R A L  F E E D E R -                       
                                                                              
 v1 FN, 2020, v2 2021, v3 2022-2024                                           
------------------------------------------------------------------------------


----------------------
SHARK INTEGRAL PACKAGE
----------------------

Number of atoms                             ...      3
Number of basis functions                   ...    150
Number of shells                            ...     44
Maximum angular momentum                    ...      5
Integral batch strategy                     ... SHARK/LIBINT Hybrid
RI-J (if used) integral strategy            ... SPLIT-RIJ (Revised 2003 algorithm where possible)
Printlevel                                  ...      1
Contraction scheme used                     ... GENERAL contraction
Prescreening option                         ... SCHWARTZ
   Thresh                                   ... 1.000e-12
   Tcut                                     ... 1.000e-11
   Tpresel                                  ... 1.000e-11 
Coulomb Range Separation                    ... NOT USED
Exchange Range Separation                   ... NOT USED
Multipole approximations                    ... NOT USED
Finite Nucleus Model                        ... NOT USED
CABS basis                                  ... NOT available
Auxiliary Coulomb fitting basis             ... NOT available
Auxiliary J/K fitting basis                 ... NOT available
Auxiliary Correlation fitting basis         ... NOT available
Auxiliary 'external' fitting basis          ... NOT available

Checking pre-screening integrals            ... done (  0.0 sec) Dimension = 44
Calculate PGC pre-screening integrals       ... done (  0.2 sec) Dimension = 106
Calculate PGC overlap integrals             ... done (  0.2 sec) Dimension = 106
Check shell pair data                       ... done (  0.0 sec)
Shell pair information
Shell pair cut-off parameter TPreSel        ...   1.0e-11
Total number of shell pairs                 ...       990
Shell pairs after pre-screening             ...         0
Total number of primitive shell pairs       ...    160056
Primitive shell pairs kept                  ...      6184

Calculating one electron integrals          ... done (  0.0 sec)
Calculating Nuclear repulsion               ... done (  0.0 sec) ENN=     53.156767464521 Eh

Diagonalization of the overlap matrix:
Smallest eigenvalue                        ... 2.560e-04
Time for diagonalization                   ...    0.006 sec
Threshold for overlap eigenvalues          ... 1.000e-07
Number of eigenvalues below threshold      ... 0
Time for construction of square roots      ...    0.002 sec
Total time needed                          ...    0.009 sec

-------------------
DFT GRID GENERATION
-------------------

General Integration Accuracy     IntAcc      ... 4.388
Radial Grid Type                 RadialGrid  ... OptM3 with GC (2021)
Angular Grid (max. ang.)         AngularGrid ... 4 (Lebedev-302)
Angular grid pruning method      GridPruning ... 4 (adaptive)
Weight generation scheme         WeightScheme... mBecke (2022)
Basis function cutoff            BFCut       ... 1.0000e-10
Integration weight cutoff        WCut        ... 1.0000e-14
Partially contracted basis set               ... off
Rotationally invariant grid construction     ... off
Angular grids for H and He will be reduced by one unit
Diffuse basis detected: some atoms will have their outermost
                        angular grid increased by 1.
Core-polarized basis detected: some atoms will have their core
                               angular grid increased.
Steep s-basis detected: some atoms will have their radial
                        grid points doubled.

Total number of grid points                  ...    36264
Total number of batches                      ...      568
Average number of points per batch           ...       63
Average number of grid points per atom       ...    12088
Initializing property integral containers    ... done (  0.0 sec)

SHARK setup successfully completed in  10.4 seconds

Maximum memory used throughout the entire STARTUP-calculation: 904.3 MB
-------------------------------------------------------------------------------
                                 ORCA GUESS
                   Start orbitals & Density for SCF / CASSCF
-------------------------------------------------------------------------------

------------
SCF SETTINGS
------------
Hamiltonian:
 Density Functional     Method          .... DFT(GTOs)
 Exchange Functional    Exchange        .... B88
   X-Alpha parameter    XAlpha          ....  0.666667
   Becke's b parameter  XBeta           ....  0.004200
 Correlation Functional Correlation     .... LYP
 LDA part of GGA corr.  LDAOpt          .... VWN-3
 Gradients option       PostSCFGGA      .... off
 Hybrid DFT is turned on
   Fraction HF Exchange ScalHFX         ....  0.200000
   Scaling of DF-GGA-X  ScalDFX         ....  0.720000
   Scaling of DF-GGA-C  ScalDFC         ....  0.810000
   Scaling of DF-LDA-C  ScalLDAC        ....  1.000000
   Perturbative correction              ....  0.000000
   NL short-range parameter             ....  4.800000


General Settings:
 Integral files         IntName         .... irh2_cpks_rotate
 Hartree-Fock type      HFTyp           .... UHF
 Total Charge           Charge          ....    0
 Multiplicity           Mult            ....    2
 Number of Electrons    NEL             ....   79
 Basis Dimension        Dim             ....  150
 Nuclear Repulsion      ENuc            ....     53.1567674645 Eh

Convergence Acceleration:
 AO-DIIS                CNVDIIS         .... on
   Start iteration      DIISMaxIt       ....    12
   Startup error        DIISStart       ....  0.200000
   # of expansion vecs  DIISMaxEq       ....     5
   Bias factor          DIISBfac        ....   1.050
   Max. coefficient     DIISMaxC        ....  10.000
 MO-DIIS                CNVKDIIS        .... off
 Trust-Rad. Augm. Hess. CNVTRAH         .... auto
   Auto Start mean grad. ratio tolernc. ....  1.125000
   Auto Start start iteration           ....    50
   Auto Start num. interpolation iter.  ....    10
   Max. Number of Micro iterations      ....    24
   Max. Number of Macro iterations      .... Maxiter - #DIIS iter
   Number of Davidson start vectors     ....     2
   Converg. threshold    (grad. norm)   ....   5.000e-05
   Grad. Scal. Fac. for Micro threshold ....   0.100
   Minimum threshold for Micro iter.    ....   1.000e-02
   NR start threshold (gradient norm)   ....   1.000e-04
   Initial trust radius                 ....   0.400
   Minimum AH scaling param. (alpha)    ....   1.000
   Maximum AH scaling param. (alpha)    .... 1000.000
   Quad. conv. algorithm                .... NR
   White noise on init. David. guess    .... on
   Maximum white noise                  ....   0.010
   Pseudo random numbers                .... off
   Inactive MOs                         .... canonical
   Orbital update algorithm             .... Taylor
   Preconditioner                       .... Diag
   Full preconditioner red. dimension   ....   250
 SOSCF                  CNVSOSCF        .... on
   Start iteration      SOSCFMaxIt      ....   150
   Startup grad/error   SOSCFStart      ....  0.003300
   Hessian update       SOSCFHessUp     .... L-BFGS
 Level Shifting         CNVShift        .... on
   Level shift para.    LevelShift      ....    0.2500
   Turn off err/grad.   ShiftErr        ....    0.0010
 Zerner damping         CNVZerner       .... off
 Static damping         CNVDamp         .... on
   Fraction old density DampFac         ....    0.7000
   Max. Damping (<1)    DampMax         ....    0.9800
   Min. Damping (>=0)   DampMin         ....    0.0000
   Turn off err/grad.   DampErr         ....    0.1000

SCF Procedure:
 Maximum # iterations   MaxIter         ....   500
 SCF integral mode      SCFMode         .... Direct
   Integral package                     .... SHARK and LIBINT hybrid scheme
 Reset frequency        DirectResetFreq ....    20
 Integral Threshold     Thresh          ....  1.000e-12 Eh
 Primitive CutOff       TCut            ....  1.000e-11 Eh

Convergence Tolerance:
 Convergence Check Mode ConvCheckMode   .... Total+1el-Energy
 Convergence forced     ConvForced      .... 0
 Energy Change          TolE            ....  1.000e-08 Eh
 1-El. energy change                    ....  1.000e-05 Eh
 Orbital Gradient       TolG            ....  5.000e-05
 Orbital Rotation angle TolX            ....  5.000e-05
 DIIS Error             TolErr          ....  1.000e-06

------------------------------
INITIAL GUESS: MODEL POTENTIAL
------------------------------
Loading Hartree-Fock densities                     ... done
Calculating cut-offs                               ... done
Initializing the effective Hamiltonian             ... done
Setting up the integral package (SHARK)            ... done
Starting the Coulomb interaction                   ... done (   1.5 sec)
Making the grid                                    ... done (   0.2 sec)
Mapping shells                                     ... done
Starting the XC term evaluation                    ... done (   0.2 sec)
  promolecular density results
     # of electrons  =     79.002352567
     EX              =   -351.026227732
     EC              =     -4.219375623
     EX+EC           =   -355.245603355
Transforming the Hamiltonian                       ... done (   0.0 sec)
Diagonalizing the Hamiltonian                      ... done (   0.0 sec)
Back transforming the eigenvectors                 ... done (   0.1 sec)
Now organizing SCF variables                       ... 
-----------------
ORBITAL ROTATIONS
-----------------
  Rotation  39(0)   40(0) cos(t)= 0.000000  sin(t)= 1.000000
  Orbital Energies were swapped
done
                      ------------------
                      INITIAL GUESS DONE (   1.9 sec)
                      ------------------
----------------------
INITIAL GUESS ORBITALS
----------------------
                      0         1         2         3         4         5   
                 -1709.96073 -387.20420 -387.20216 -387.19225 -237.71125 -83.32399
                   1.00000   1.00000   1.00000   1.00000   1.00000   1.00000
                  --------  --------  --------  --------  --------  --------
  0Ir  1s        -0.920740  0.000111 -0.000000  0.000000  0.152154 -0.000306
  0Ir  2s        -0.357467  0.000849 -0.000000  0.000000 -0.690982 -0.002140
  0Ir  3s         0.138158  0.002690 -0.000000  0.000000 -0.684753 -0.006896
  0Ir  4s        -0.049602  0.008275 -0.000000  0.000000  0.162859 -0.022536
  0Ir  5s         0.072419  0.028072 -0.000000  0.000000 -0.184593 -0.076799
  0Ir  6s         0.102304  0.044138 -0.000000  0.000000 -0.250423 -0.119588
  0Ir  7s         0.010009 -0.020292  0.000000 -0.000000 -0.031963  0.056584
  0Ir  8s        -0.029968 -0.004573  0.000000 -0.000000  0.083268  0.012656
  0Ir  1pz        0.000000  0.000000  0.000000  0.997096  0.000000 -0.000000
  0Ir  1px        0.000033  0.693279  0.716640 -0.000000  0.000016 -0.044960
  0Ir  1py        0.000034  0.716658 -0.693262  0.000000  0.000016 -0.046476
  0Ir  2pz        0.000000  0.000000  0.000000  0.068660 -0.000000  0.000000
  0Ir  2px        0.000287  0.047927  0.049358 -0.000000 -0.000612  0.689009
  0Ir  2py        0.000296  0.049543 -0.047748  0.000000 -0.000633  0.712239
  0Ir  3pz       -0.000000 -0.000000 -0.000000 -0.026897  0.000000  0.000000
  0Ir  3px        0.002114 -0.017172 -0.019129  0.000000 -0.004927  0.061116
  0Ir  3py        0.002185 -0.017751  0.018505 -0.000000 -0.005093  0.063177
  0Ir  4pz       -0.000000  0.000000  0.000000  0.010944  0.000000 -0.000000
  0Ir  4px        0.017282  0.019030  0.009492  0.000000 -0.041091 -0.053862
  0Ir  4py        0.017865  0.019672 -0.009182  0.000000 -0.042476 -0.055679
  0Ir  5pz       -0.000000 -0.000000  0.000000 -0.004767  0.000000  0.000000
  0Ir  5px        0.048600  0.017821 -0.002037  0.000000 -0.121738 -0.047620
  0Ir  5py        0.050239  0.018422  0.001971  0.000000 -0.125844 -0.049227
  0Ir  6pz       -0.000000 -0.000000  0.000000  0.007108  0.000000 -0.000000
  0Ir  6px        0.013303  0.004073  0.002567 -0.000000 -0.036075 -0.011572
  0Ir  6py        0.013752  0.004211 -0.002483  0.000000 -0.037292 -0.011963
  0Ir  7pz        0.000000 -0.000000 -0.000000 -0.013939  0.000000  0.000000
  0Ir  7px        0.002577 -0.012951 -0.013057  0.000000 -0.007316  0.036374
  0Ir  7py        0.002664 -0.013387  0.012631 -0.000000 -0.007562  0.037600
  0Ir  1dz2      -0.000017 -0.000026  0.000000 -0.000000  0.000033  0.000245
  0Ir  1dxz       0.000000  0.000000 -0.000000  0.000005 -0.000000 -0.000000
  0Ir  1dyz      -0.000000 -0.000000  0.000000  0.000005  0.000000  0.000000
  0Ir  1dx2y2    -0.000000 -0.000000  0.000011 -0.000000  0.000001  0.000001
  0Ir  1dxy       0.000012  0.000004  0.000000  0.000000 -0.000030 -0.000034
  0Ir  2dz2      -0.000418 -0.000546  0.000000 -0.000000  0.000869  0.001479
  0Ir  2dxz      -0.000000  0.000000  0.000000  0.000075  0.000000 -0.000000
  0Ir  2dyz      -0.000000 -0.000000  0.000000  0.000077  0.000000 -0.000000
  0Ir  2dx2y2    -0.000010 -0.000001  0.000180 -0.000000  0.000028  0.000002
  0Ir  2dxy       0.000304  0.000034  0.000006  0.000000 -0.000839 -0.000071
  0Ir  3dz2      -0.012744 -0.010408  0.000000 -0.000000  0.030290  0.028411
  0Ir  3dxz      -0.000000 -0.000000  0.000000  0.001245  0.000000 -0.000000
  0Ir  3dyz      -0.000000  0.000000  0.000000  0.001287  0.000000 -0.000000
  0Ir  3dx2y2    -0.000266 -0.000006  0.003543 -0.000000  0.000728  0.000010
  0Ir  3dxy       0.008008  0.000191  0.000118  0.000000 -0.021933 -0.000293
  0Ir  4dz2      -0.017542 -0.008055  0.000000 -0.000000  0.044462  0.021805
  0Ir  4dxz      -0.000000 -0.000000  0.000000  0.000236  0.000000 -0.000000
  0Ir  4dyz      -0.000000  0.000000  0.000000  0.000244  0.000000 -0.000000
  0Ir  4dx2y2    -0.000330  0.000037  0.001487 -0.000000  0.000900 -0.000113
  0Ir  4dxy       0.009935 -0.001115  0.000049  0.000000 -0.027117  0.003402
  0Ir  5dz2      -0.005676  0.002213 -0.000000  0.000000  0.015869 -0.006138
  0Ir  5dxz      -0.000000 -0.000000 -0.000000 -0.001488  0.000000 -0.000000
  0Ir  5dyz      -0.000000  0.000000 -0.000000 -0.001538  0.000000  0.000000
  0Ir  5dx2y2    -0.000101  0.000066 -0.003103 -0.000000  0.000275 -0.000185
  0Ir  5dxy       0.003054 -0.001989 -0.000103  0.000000 -0.008290  0.005564
  0Ir  1f0        0.000000 -0.000000 -0.000000 -0.000140 -0.000000  0.000000
  0Ir  1f+1      -0.000116 -0.000245 -0.000104 -0.000000  0.000217  0.000668
  0Ir  1f-1      -0.000120 -0.000253  0.000100 -0.000000  0.000225  0.000690
  0Ir  1f+2       0.000000 -0.000000  0.000000  0.000000 -0.000000 -0.000000
  0Ir  1f-2       0.000000  0.000000  0.000000 -0.000010 -0.000000 -0.000000
  0Ir  1f+3       0.000057 -0.000295  0.000027 -0.000000 -0.000293  0.000808
  0Ir  1f-3      -0.000051  0.000267  0.000030  0.000000  0.000266 -0.000731
  0Ir  2f0        0.000000  0.000000 -0.000000 -0.001763 -0.000000  0.000000
  0Ir  2f+1      -0.002599 -0.002779 -0.001307  0.000000  0.006188  0.007564
  0Ir  2f-1      -0.002686 -0.002873  0.001264 -0.000000  0.006397  0.007819
  0Ir  2f+2      -0.000000 -0.000000 -0.000000  0.000005  0.000000 -0.000000
  0Ir  2f-2       0.000000 -0.000000 -0.000000 -0.000156 -0.000000 -0.000000
  0Ir  2f+3      -0.000231 -0.003370  0.000405 -0.000000 -0.000636  0.009236
  0Ir  2f-3       0.000209  0.003051  0.000448  0.000000  0.000576 -0.008360
  0Ir  3f0        0.000000  0.000000 -0.000000 -0.001415 -0.000000  0.000000
  0Ir  3f+1      -0.003633 -0.002094 -0.001006  0.000000  0.009283  0.005651
  0Ir  3f-1      -0.003755 -0.002165  0.000974 -0.000000  0.009596  0.005842
  0Ir  3f+2      -0.000000 -0.000000 -0.000000  0.000005  0.000000 -0.000000
  0Ir  3f-2       0.000000 -0.000000 -0.000000 -0.000161 -0.000000 -0.000000
  0Ir  3f+3      -0.001233 -0.002666  0.000418 -0.000000  0.002550  0.007264
  0Ir  3f-3       0.001116  0.002413  0.000462  0.000000 -0.002308 -0.006575
  0Ir  1g0       -0.000109  0.001157 -0.000000  0.000000  0.000567 -0.003148
  0Ir  1g+1       0.000000  0.000000 -0.000000 -0.000603 -0.000000  0.000000
  0Ir  1g-1       0.000000 -0.000000 -0.000000 -0.000624 -0.000000  0.000000
  0Ir  1g+2       0.000025  0.000007 -0.000814  0.000000 -0.000069 -0.000019
  0Ir  1g-2      -0.000766 -0.000213 -0.000027 -0.000000  0.002084  0.000574
  0Ir  1g+3       0.000000  0.000000 -0.000000 -0.000646 -0.000000  0.000000
  0Ir  1g-3      -0.000000 -0.000000  0.000000  0.000585  0.000000 -0.000000
  0Ir  1g+4       0.000299 -0.002458 -0.000105 -0.000000 -0.001377  0.006691
  0Ir  1g-4       0.000020 -0.000163  0.001583 -0.000000 -0.000091  0.000444
  0Ir  2g0        0.000181  0.000955  0.000000  0.000000 -0.000371 -0.002585
  0Ir  2g+1       0.000000 -0.000000 -0.000000 -0.000679 -0.000000  0.000000
  0Ir  2g-1       0.000000 -0.000000 -0.000000 -0.000702 -0.000000  0.000000
  0Ir  2g+2       0.000033  0.000008 -0.000805  0.000000 -0.000089 -0.000021
  0Ir  2g-2      -0.000997 -0.000240 -0.000027 -0.000000  0.002685  0.000639
  0Ir  2g+3       0.000000  0.000000 -0.000000 -0.000745 -0.000000  0.000000
  0Ir  2g-3      -0.000000 -0.000000  0.000000  0.000674  0.000000 -0.000000
  0Ir  2g+4      -0.000205 -0.002142 -0.000116 -0.000000  0.000270  0.005793
  0Ir  2g-4      -0.000014 -0.000142  0.001740 -0.000000  0.000018  0.000385
  0Ir  1h0       -0.000000 -0.000000  0.000000  0.000340  0.000000 -0.000000
  0Ir  1h+1      -0.000210  0.000279  0.000233 -0.000000  0.000599 -0.000745
  0Ir  1h-1      -0.000217  0.000288 -0.000226  0.000000  0.000619 -0.000770
  0Ir  1h+2       0.000000  0.000000  0.000000 -0.000001 -0.000000  0.000000
  0Ir  1h-2      -0.000000  0.000000  0.000000  0.000032  0.000000  0.000000
  0Ir  1h+3      -0.000460  0.000261  0.000000  0.000000  0.001278 -0.000696
  0Ir  1h-3       0.000417 -0.000236  0.000000 -0.000000 -0.001157  0.000630
  0Ir  1h+4       0.000000 -0.000000 -0.000000 -0.000399 -0.000000  0.000000
  0Ir  1h-4       0.000000 -0.000000 -0.000000 -0.000027 -0.000000  0.000000
  0Ir  1h+5      -0.000102  0.000498  0.000530 -0.000000  0.000322 -0.001331
  0Ir  1h-5      -0.000120  0.000588 -0.000448  0.000000  0.000380 -0.001572
  1H   1s        -0.068741 -0.034287 -0.001180 -0.000000  0.169897  0.093193
  1H   2s        -0.032836 -0.003212  0.008414 -0.000000  0.082512  0.008054
  1H   3s         0.016837  0.010878  0.003425  0.000000 -0.041893 -0.029942
  1H   4s         0.004530 -0.000503 -0.000738  0.000000 -0.012030  0.001351
  1H   1pz        0.000000  0.000000 -0.000000 -0.001684 -0.000000  0.000000
  1H   1px        0.015529  0.018944  0.004644  0.000000 -0.033745 -0.052110
  1H   1py       -0.009323 -0.000126  0.001238 -0.000000  0.025251  0.000084
  1H   2pz        0.000000  0.000000  0.000000  0.001943 -0.000000  0.000000
  1H   2px        0.011689  0.007296  0.001178  0.000000 -0.028379 -0.020192
  1H   2py       -0.005987  0.001650 -0.002285 -0.000000  0.016271 -0.004777
  1H   3pz       -0.000000 -0.000000  0.000000  0.002509  0.000000 -0.000000
  1H   3px        0.001046 -0.001441 -0.000454 -0.000000 -0.003950  0.003958
  1H   3py        0.000218  0.001419 -0.002319  0.000000 -0.000538 -0.003912
  1H   1dz2      -0.001486  0.001098  0.000351  0.000000  0.005122 -0.003044
  1H   1dxz      -0.000000 -0.000000  0.000000  0.001887  0.000000 -0.000000
  1H   1dyz      -0.000000 -0.000000  0.000000  0.000123  0.000000  0.000000
  1H   1dx2y2     0.003304 -0.002208  0.000283 -0.000000 -0.010903  0.006113
  1H   1dxy       0.002391  0.000917 -0.001859  0.000000 -0.006486 -0.002470
  1H   2dz2      -0.001028  0.000277  0.000268  0.000000  0.003260 -0.000789
  1H   2dxz      -0.000000 -0.000000  0.000000  0.000971  0.000000 -0.000000
  1H   2dyz      -0.000000 -0.000000  0.000000  0.000085  0.000000  0.000000
  1H   2dx2y2     0.001592 -0.000688  0.000393 -0.000000 -0.005209  0.001926
  1H   2dxy       0.001502  0.000523 -0.000775  0.000000 -0.004059 -0.001402
  2H   1s        -0.068741 -0.034287  0.001180 -0.000000  0.169897  0.093193
  2H   2s        -0.032836 -0.003212 -0.008414 -0.000000  0.082512  0.008055
  2H   3s         0.016837  0.010878 -0.003425  0.000000 -0.041893 -0.029942
  2H   4s         0.004530 -0.000503  0.000738  0.000000 -0.012030  0.001351
  2H   1pz        0.000000 -0.000000 -0.000000 -0.001684 -0.000000  0.000000
  2H   1px       -0.009832 -0.000754 -0.001083 -0.000000  0.026356  0.001812
  2H   1py        0.015211  0.018930 -0.004682  0.000000 -0.032890 -0.052079
  2H   2pz        0.000000  0.000000 -0.000000  0.001943 -0.000000 -0.000000
  2H   2px       -0.006372  0.001408  0.002323 -0.000000  0.017203 -0.004105
  2H   2py        0.011484  0.007347 -0.001102  0.000000 -0.027824 -0.020340
  2H   3pz       -0.000000  0.000000  0.000000  0.002509  0.000000 -0.000000
  2H   3px        0.000183  0.001466  0.002303 -0.000000 -0.000407 -0.004041
  2H   3py        0.001052 -0.001393  0.000530 -0.000000 -0.003965  0.003826
  2H   1dz2      -0.001486  0.001098 -0.000351  0.000000  0.005122 -0.003044
  2H   1dxz      -0.000000 -0.000000  0.000000  0.000060  0.000000  0.000000
  2H   1dyz      -0.000000 -0.000000  0.000000  0.001890  0.000000 -0.000000
  2H   1dx2y2    -0.003455  0.002142  0.000159  0.000000  0.011309 -0.005936
  2H   1dxy       0.002167  0.001062  0.001874 -0.000000 -0.005749 -0.002870
  2H   2dz2      -0.001028  0.000277 -0.000268  0.000000  0.003260 -0.000789
  2H   2dxz      -0.000000 -0.000000  0.000000  0.000053  0.000000  0.000000
  2H   2dyz      -0.000000 -0.000000  0.000000  0.000973  0.000000 -0.000000
  2H   2dx2y2    -0.001688  0.000652  0.000341  0.000000  0.005467 -0.001829
  2H   2dxy       0.001393  0.000568  0.000799 -0.000000 -0.003705 -0.001526
                      6         7         8         9        10        11   
                 -83.32057 -83.30341 -72.25716 -72.25625 -72.25605 -72.25582
                   1.00000   1.00000   1.00000   1.00000   1.00000   1.00000
                  --------  --------  --------  --------  --------  --------
  0Ir  1s        -0.000000 -0.000000  0.000000 -0.000052 -0.000190  0.000000
  0Ir  2s        -0.000000 -0.000000  0.000000 -0.000337 -0.001170  0.000000
  0Ir  3s        -0.000000 -0.000000  0.000000 -0.001162 -0.004182  0.000000
  0Ir  4s        -0.000000 -0.000000  0.000000 -0.003660 -0.012894  0.000000
  0Ir  5s        -0.000000 -0.000000  0.000000 -0.012604 -0.043513  0.000000
  0Ir  6s        -0.000000 -0.000000  0.000000 -0.024170 -0.078725  0.000000
  0Ir  7s         0.000000  0.000000 -0.000000  0.003324  0.013309 -0.000000
  0Ir  8s         0.000000  0.000000  0.000000  0.000714  0.001377  0.000000
  0Ir  1pz        0.000000  0.064686  0.000000  0.000000  0.000000 -0.000000
  0Ir  1px        0.046436 -0.000000  0.000027 -0.000012 -0.000012 -0.000000
  0Ir  1py       -0.044922 -0.000000 -0.000026 -0.000012 -0.000012  0.000000
  0Ir  2pz       -0.000000 -0.991866 -0.000000  0.000000 -0.000000  0.000000
  0Ir  2px       -0.712767  0.000000  0.000565 -0.000084 -0.000466  0.000000
  0Ir  2py        0.689519  0.000000 -0.000547 -0.000087 -0.000481  0.000000
  0Ir  3pz       -0.000000 -0.094096 -0.000000  0.000000 -0.000000 -0.000000
  0Ir  3px       -0.066981  0.000000  0.003302 -0.000624 -0.002367  0.000000
  0Ir  3py        0.064796  0.000000 -0.003195 -0.000645 -0.002447  0.000000
  0Ir  4pz        0.000000  0.032529 -0.000000  0.000000 -0.000000 -0.000000
  0Ir  4px        0.027759 -0.000000  0.023863 -0.004808 -0.017238  0.000000
  0Ir  4py       -0.026853 -0.000000 -0.023084 -0.004969 -0.017820  0.000000
  0Ir  5pz        0.000000 -0.014372 -0.000000  0.000000 -0.000000 -0.000000
  0Ir  5px       -0.006900 -0.000000  0.042840 -0.010698 -0.032387  0.000000
  0Ir  5py        0.006674 -0.000000 -0.041442 -0.011058 -0.033479  0.000000
  0Ir  6pz        0.000000  0.020503  0.000000  0.000000 -0.000000  0.000000
  0Ir  6px        0.007448 -0.000000 -0.000589 -0.001825 -0.000440  0.000000
  0Ir  6py       -0.007205 -0.000000  0.000570 -0.001887 -0.000455 -0.000000
  0Ir  7pz       -0.000000 -0.039472  0.000000  0.000000  0.000000  0.000000
  0Ir  7px       -0.036735  0.000000 -0.002427 -0.000670  0.001770 -0.000000
  0Ir  7py        0.035537  0.000000  0.002347 -0.000692  0.001830 -0.000000
  0Ir  1dz2       0.000000 -0.000000 -0.000002  0.190889  0.981431 -0.000000
  0Ir  1dxz      -0.000000  0.000052 -0.000000  0.000000 -0.000000 -0.718587
  0Ir  1dyz       0.000000  0.000054  0.000000 -0.000001  0.000000  0.695144
  0Ir  1dx2y2     0.000161 -0.000000  0.999309 -0.032542  0.006331 -0.000000
  0Ir  1dxy       0.000005  0.000000  0.033154  0.980865 -0.190775  0.000001
  0Ir  2dz2       0.000000 -0.000000 -0.000000  0.003679  0.018484 -0.000000
  0Ir  2dxz       0.000000  0.000191 -0.000000  0.000000 -0.000000 -0.013062
  0Ir  2dyz      -0.000000  0.000198  0.000000 -0.000000  0.000000  0.012636
  0Ir  2dx2y2     0.000475  0.000000  0.019848 -0.000592  0.000114 -0.000000
  0Ir  2dxy       0.000016 -0.000000  0.000659  0.017856 -0.003448  0.000000
  0Ir  3dz2       0.000000  0.000000  0.000000  0.003686  0.009389 -0.000000
  0Ir  3dxz       0.000000  0.003331  0.000000  0.000000  0.000000  0.001698
  0Ir  3dyz      -0.000000  0.003444 -0.000000  0.000000 -0.000000 -0.001642
  0Ir  3dx2y2     0.009579  0.000000  0.026952  0.000075 -0.000025 -0.000000
  0Ir  3dxy       0.000318 -0.000000  0.000894 -0.002250  0.000752 -0.000000
  0Ir  4dz2       0.000000  0.000000 -0.000000  0.005055  0.016318 -0.000000
  0Ir  4dxz       0.000000  0.000479 -0.000000  0.000000 -0.000000 -0.004609
  0Ir  4dyz      -0.000000  0.000495  0.000000 -0.000000  0.000000  0.004459
  0Ir  4dx2y2     0.003704  0.000000  0.028844 -0.000175  0.000032 -0.000000
  0Ir  4dxy       0.000123 -0.000000  0.000957  0.005264 -0.000959  0.000000
  0Ir  5dz2      -0.000000 -0.000000  0.000000 -0.001195 -0.007322  0.000000
  0Ir  5dxz       0.000000 -0.004154  0.000000 -0.000000  0.000000  0.005490
  0Ir  5dyz      -0.000000 -0.004294 -0.000000  0.000000 -0.000000 -0.005311
  0Ir  5dx2y2    -0.008680  0.000000 -0.010470  0.000299 -0.000051  0.000000
  0Ir  5dxy      -0.000288 -0.000000 -0.000347 -0.009018  0.001548 -0.000000
  0Ir  1f0       -0.000000 -0.000380  0.000000  0.000000  0.000000  0.000000
  0Ir  1f+1      -0.000283  0.000000 -0.000466  0.000070  0.000330 -0.000000
  0Ir  1f-1       0.000274  0.000000  0.000451  0.000073  0.000341 -0.000000
  0Ir  1f+2       0.000000  0.000001 -0.000000  0.000000 -0.000000 -0.000202
  0Ir  1f-2       0.000000 -0.000028  0.000000 -0.000000  0.000000 -0.000007
  0Ir  1f+3       0.000070  0.000000 -0.000536  0.000259  0.000430  0.000000
  0Ir  1f-3       0.000077 -0.000000 -0.000592 -0.000235 -0.000389  0.000000
  0Ir  2f0       -0.000000 -0.004810  0.000000 -0.000000  0.000000  0.000000
  0Ir  2f+1      -0.003552  0.000000 -0.004682  0.000788  0.003447 -0.000000
  0Ir  2f-1       0.003436  0.000000  0.004529  0.000815  0.003563 -0.000000
  0Ir  2f+2       0.000000  0.000014 -0.000000  0.000000 -0.000000 -0.002468
  0Ir  2f-2       0.000000 -0.000432  0.000000 -0.000000  0.000000 -0.000082
  0Ir  2f+3       0.001074  0.000000 -0.005341  0.002935  0.004481  0.000000
  0Ir  2f-3       0.001187 -0.000000 -0.005901 -0.002656 -0.004056  0.000000
  0Ir  3f0       -0.000000 -0.003822  0.000000 -0.000000 -0.000000  0.000000
  0Ir  3f+1      -0.002700  0.000000 -0.003129  0.000650  0.002506 -0.000000
  0Ir  3f-1       0.002612  0.000000  0.003027  0.000672  0.002590 -0.000000
  0Ir  3f+2       0.000000  0.000015 -0.000000  0.000000 -0.000000 -0.002015
  0Ir  3f-2       0.000000 -0.000442  0.000000 -0.000000  0.000000 -0.000067
  0Ir  3f+3       0.001114  0.000000 -0.003573  0.002240  0.003164  0.000000
  0Ir  3f-3       0.001231 -0.000000 -0.003947 -0.002028 -0.002864  0.000000
  0Ir  1g0       -0.000000 -0.000000  0.000000 -0.000436 -0.001403  0.000000
  0Ir  1g+1      -0.000000 -0.001660  0.000000 -0.000000  0.000000  0.000689
  0Ir  1g-1       0.000000 -0.001716  0.000000  0.000000 -0.000000 -0.000667
  0Ir  1g+2      -0.002229 -0.000000 -0.002828  0.000019 -0.000003  0.000000
  0Ir  1g-2      -0.000074  0.000000 -0.000094 -0.000577  0.000090  0.000000
  0Ir  1g+3      -0.000000 -0.001780  0.000000 -0.000000  0.000000  0.000512
  0Ir  1g-3       0.000000  0.001611  0.000000 -0.000000  0.000000  0.000566
  0Ir  1g+4      -0.000286  0.000000 -0.000010  0.000916  0.002736 -0.000000
  0Ir  1g-4       0.004305 -0.000000  0.000146  0.000061  0.000182  0.000000
  0Ir  2g0        0.000000 -0.000000  0.000000 -0.000323 -0.001029  0.000000
  0Ir  2g+1      -0.000000 -0.001850 -0.000000  0.000000  0.000000  0.000735
  0Ir  2g-1       0.000000 -0.001913  0.000000 -0.000000 -0.000000 -0.000711
  0Ir  2g+2      -0.002183  0.000000 -0.001921  0.000019 -0.000004  0.000000
  0Ir  2g-2      -0.000072  0.000000 -0.000064 -0.000570  0.000126  0.000000
  0Ir  2g+3      -0.000000 -0.002031  0.000000 -0.000000  0.000000  0.000538
  0Ir  2g-3       0.000000  0.001838  0.000000 -0.000000  0.000000  0.000595
  0Ir  2g+4      -0.000311  0.000000 -0.000005  0.000776  0.001985 -0.000000
  0Ir  2g-4       0.004686 -0.000000  0.000070  0.000052  0.000132  0.000000
  0Ir  1h0        0.000000  0.000921 -0.000000  0.000000 -0.000000 -0.000000
  0Ir  1h+1       0.000626 -0.000000  0.000444 -0.000041 -0.000307 -0.000000
  0Ir  1h-1      -0.000606 -0.000000 -0.000429 -0.000042 -0.000318  0.000000
  0Ir  1h+2      -0.000000 -0.000003  0.000000 -0.000000  0.000000  0.000516
  0Ir  1h-2      -0.000000  0.000087 -0.000000  0.000000  0.000000  0.000017
  0Ir  1h+3       0.000002 -0.000000  0.000418 -0.000271 -0.000323 -0.000000
  0Ir  1h-3       0.000003  0.000000  0.000462  0.000245  0.000293 -0.000000
  0Ir  1h+4      -0.000000 -0.001080  0.000000  0.000000  0.000000  0.000003
  0Ir  1h-4       0.000000 -0.000072  0.000000  0.000000  0.000000 -0.000047
  0Ir  1h+5       0.001415 -0.000000  0.000671  0.000200 -0.000435  0.000000
  0Ir  1h-5      -0.001198 -0.000000 -0.000568  0.000237 -0.000514  0.000000
  1H   1s        -0.002395  0.000000 -0.066425  0.017040  0.052548 -0.000000
  1H   2s         0.023941 -0.000000 -0.021881  0.005353  0.017274 -0.000000
  1H   3s         0.009508 -0.000000  0.014887 -0.003851 -0.011947  0.000000
  1H   4s        -0.002023  0.000000 -0.000569  0.000047  0.000173  0.000000
  1H   1pz       -0.000000 -0.004417  0.000000 -0.000000  0.000000  0.002511
  1H   1px        0.012845 -0.000000  0.033412 -0.006820 -0.024701  0.000000
  1H   1py        0.003114  0.000000 -0.000568 -0.001060  0.000778 -0.000000
  1H   2pz       -0.000000  0.005639 -0.000000 -0.000000 -0.000000 -0.000792
  1H   2px        0.003279 -0.000000  0.011417 -0.001958 -0.008894  0.000000
  1H   2py       -0.006547  0.000000 -0.000534  0.001978 -0.000088  0.000000
  1H   3pz        0.000000  0.006964 -0.000000  0.000000 -0.000000 -0.001694
  1H   3px       -0.001287  0.000000 -0.003732  0.000884  0.002405  0.000000
  1H   3py       -0.006384 -0.000000 -0.000149  0.001826 -0.000461  0.000000
  1H   1dz2       0.001013 -0.000000  0.004067 -0.000502 -0.002593  0.000000
  1H   1dxz       0.000000  0.005165 -0.000000  0.000000 -0.000000 -0.002435
  1H   1dyz       0.000000  0.000343 -0.000000  0.000000 -0.000000 -0.000073
  1H   1dx2y2     0.000734  0.000000 -0.006679  0.001191  0.004340 -0.000000
  1H   1dxy      -0.005029 -0.000000  0.000270  0.002312 -0.000577  0.000000
  1H   2dz2       0.000752 -0.000000  0.001354 -0.000002 -0.000728 -0.000000
  1H   2dxz       0.000000  0.002656 -0.000000  0.000000 -0.000000 -0.001005
  1H   2dyz       0.000000  0.000237 -0.000000  0.000000 -0.000000 -0.000009
  1H   2dx2y2     0.001067  0.000000 -0.001918  0.000278  0.001301  0.000000
  1H   2dxy      -0.002095 -0.000000  0.000129  0.000847 -0.000295 -0.000000
  2H   1s         0.002395  0.000000  0.066425  0.017039  0.052549 -0.000000
  2H   2s        -0.023941  0.000000  0.021881  0.005352  0.017274 -0.000000
  2H   3s        -0.009509 -0.000000 -0.014887 -0.003851 -0.011947  0.000000
  2H   4s         0.002023 -0.000000  0.000569  0.000047  0.000173  0.000000
  2H   1pz        0.000000 -0.004417  0.000000  0.000000 -0.000000 -0.002511
  2H   1px       -0.002686  0.000000  0.001675 -0.000833  0.001596 -0.000000
  2H   1py       -0.012942 -0.000000 -0.033374 -0.006851 -0.024662  0.000000
  2H   2pz        0.000000  0.005639 -0.000000 -0.000000  0.000000  0.000792
  2H   2px        0.006652  0.000000  0.000912  0.002042  0.000206 -0.000000
  2H   2py       -0.003060 -0.000000 -0.011393 -0.001891 -0.008892  0.000000
  2H   3pz        0.000000  0.006964 -0.000000 -0.000000  0.000000  0.001694
  2H   3px        0.006338 -0.000000  0.000025  0.001795 -0.000540  0.000000
  2H   3py        0.001498  0.000000  0.003735  0.000944  0.002388 -0.000000
  2H   1dz2      -0.001013 -0.000000 -0.004067 -0.000502 -0.002593  0.000000
  2H   1dxz      -0.000000  0.000172 -0.000000 -0.000000 -0.000000 -0.000008
  2H   1dyz      -0.000000  0.005173  0.000000 -0.000000  0.000000  0.002436
  2H   1dx2y2     0.000399 -0.000000 -0.006646 -0.001342 -0.004292  0.000000
  2H   1dxy       0.005066 -0.000000 -0.000712  0.002228 -0.000863  0.000000
  2H   2dz2      -0.000752 -0.000000 -0.001354 -0.000002 -0.000728  0.000000
  2H   2dxz      -0.000000  0.000148 -0.000000 -0.000000 -0.000000 -0.000024
  2H   2dyz      -0.000000  0.002662 -0.000000 -0.000000  0.000000  0.001005
  2H   2dx2y2     0.000926 -0.000000 -0.001905 -0.000333 -0.001279  0.000000
  2H   2dxy       0.002161 -0.000000 -0.000256  0.000827 -0.000381  0.000000
                     12        13        14        15        16        17   
                 -72.25581 -42.69425 -14.80347 -14.80027 -14.78108  -9.94001
                   1.00000   1.00000   1.00000   1.00000   1.00000   1.00000
                  --------  --------  --------  --------  --------  --------
  0Ir  1s         0.000000 -0.052538  0.000610  0.000000  0.000000 -0.000000
  0Ir  2s         0.000000  0.151689  0.004303  0.000000  0.000000 -0.000000
  0Ir  3s         0.000000 -0.420472  0.014382  0.000000  0.000000 -0.000001
  0Ir  4s         0.000000 -0.788986  0.046987  0.000001  0.000000 -0.000004
  0Ir  5s         0.000000  0.396379  0.154456  0.000004  0.000000 -0.000015
  0Ir  6s         0.000000  0.509481  0.224957  0.000006  0.000000 -0.000031
  0Ir  7s         0.000000  0.064789 -0.128741 -0.000004  0.000000  0.000003
  0Ir  8s        -0.000000 -0.170871 -0.028024 -0.000001  0.000000  0.000002
  0Ir  1pz       -0.000013  0.000000  0.000000 -0.000000  0.029305  0.000000
  0Ir  1px        0.000000  0.000057  0.020367 -0.020961 -0.000000  0.000102
  0Ir  1py        0.000000  0.000059  0.021052  0.020279 -0.000000 -0.000099
  0Ir  2pz        0.000098 -0.000000 -0.000000  0.000000 -0.082726 -0.000000
  0Ir  2px        0.000000  0.001727 -0.056003  0.059041  0.000000  0.001268
  0Ir  2py        0.000000  0.001785 -0.057887 -0.057119  0.000000 -0.001227
  0Ir  3pz        0.000176 -0.000000  0.000000 -0.000000  0.983405  0.000000
  0Ir  3px        0.000000  0.010416  0.692215 -0.707512 -0.000000  0.008837
  0Ir  3py        0.000000  0.010767  0.715509  0.684480 -0.000000 -0.008550
  0Ir  4pz        0.001150 -0.000000  0.000000 -0.000000  0.110309 -0.000000
  0Ir  4px        0.000000  0.084558  0.139565 -0.085407  0.000000  0.064028
  0Ir  4py        0.000000  0.087410  0.144267  0.082630  0.000000 -0.061950
  0Ir  5pz        0.000801 -0.000000 -0.000000 -0.000000 -0.048325 -0.000000
  0Ir  5px        0.000000  0.248549  0.079871  0.035797  0.000000  0.114514
  0Ir  5py        0.000000  0.256932  0.082570 -0.034625  0.000000 -0.110812
  0Ir  6pz       -0.001770 -0.000000  0.000000 -0.000000  0.057205 -0.000000
  0Ir  6px        0.000000  0.072348  0.030548 -0.022064  0.000000 -0.002248
  0Ir  6py        0.000000  0.074787  0.031576  0.021347  0.000000  0.002161
  0Ir  7pz       -0.001589 -0.000000 -0.000000  0.000000 -0.097778  0.000000
  0Ir  7px       -0.000000  0.015055 -0.086809  0.088287  0.000000 -0.006454
  0Ir  7py        0.000000  0.015563 -0.089730 -0.085412  0.000000  0.006237
  0Ir  1dz2       0.000000 -0.000102 -0.000039  0.000000  0.000000 -0.000000
  0Ir  1dxz       0.695143 -0.000000 -0.000000 -0.000000 -0.000028  0.000000
  0Ir  1dyz       0.718587  0.000000  0.000000 -0.000000 -0.000029 -0.000000
  0Ir  1dx2y2     0.000000 -0.000003  0.000002  0.000057  0.000000  0.017830
  0Ir  1dxy       0.000000  0.000097 -0.000048  0.000002 -0.000000  0.000611
  0Ir  2dz2       0.000000 -0.001846 -0.002811 -0.000000 -0.000000  0.000012
  0Ir  2dxz       0.012621 -0.000000  0.000000 -0.000000  0.000486 -0.000000
  0Ir  2dyz       0.013047 -0.000000 -0.000000  0.000000  0.000503  0.000000
  0Ir  2dx2y2     0.000000 -0.000056 -0.000010 -0.000933  0.000000 -0.993657
  0Ir  2dxy       0.000000  0.001683  0.000301 -0.000031  0.000000 -0.034093
  0Ir  3dz2      -0.000000 -0.062832 -0.056713 -0.000002 -0.000000  0.000007
  0Ir  3dxz      -0.001998 -0.000000 -0.000000 -0.000000  0.005847 -0.000000
  0Ir  3dyz      -0.002065 -0.000000 -0.000000  0.000000  0.006044  0.000000
  0Ir  3dx2y2    -0.000000 -0.001453  0.000074 -0.015739  0.000000  0.064302
  0Ir  3dxy       0.000000  0.043773 -0.002252 -0.000522  0.000000  0.002117
  0Ir  4dz2      -0.000000 -0.090828 -0.041309 -0.000001 -0.000000  0.000006
  0Ir  4dxz       0.004058 -0.000000 -0.000000 -0.000000 -0.001135 -0.000000
  0Ir  4dyz       0.004194 -0.000000 -0.000000  0.000000 -0.001173  0.000000
  0Ir  4dx2y2    -0.000000 -0.001803  0.000377 -0.001159 -0.000000  0.081640
  0Ir  4dxy       0.000000  0.054352 -0.011384 -0.000038  0.000000  0.002729
  0Ir  5dz2      -0.000000 -0.031732  0.013600  0.000000 -0.000000  0.000001
  0Ir  5dxz      -0.005386 -0.000000 -0.000000 -0.000000 -0.009498 -0.000000
  0Ir  5dyz      -0.005567 -0.000000 -0.000000  0.000000 -0.009819  0.000000
  0Ir  5dx2y2    -0.000000 -0.000557  0.000429  0.019945  0.000000 -0.033707
  0Ir  5dxy      -0.000000  0.016798 -0.012954  0.000661  0.000000 -0.001154
  0Ir  1f0       -0.000142  0.000000 -0.000000  0.000000 -0.000834  0.000000
  0Ir  1f+1      -0.000000 -0.000471 -0.001378  0.000592 -0.000000 -0.001118
  0Ir  1f-1      -0.000000 -0.000487 -0.001424 -0.000573  0.000000  0.001082
  0Ir  1f+2      -0.000000  0.000000  0.000000 -0.000000  0.000002 -0.000000
  0Ir  1f-2       0.000003  0.000000  0.000000 -0.000000 -0.000061 -0.000000
  0Ir  1f+3       0.000000  0.000515 -0.001667 -0.000132 -0.000000 -0.001134
  0Ir  1f-3      -0.000000 -0.000466  0.001508 -0.000145  0.000000 -0.001253
  0Ir  2f0       -0.001686  0.000000  0.000000  0.000000 -0.009631  0.000000
  0Ir  2f+1      -0.000000 -0.013006 -0.014903  0.006690 -0.000000 -0.012181
  0Ir  2f-1      -0.000000 -0.013445 -0.015405 -0.006473 -0.000000  0.011785
  0Ir  2f+2       0.000001 -0.000000 -0.000000 -0.000000  0.000031 -0.000000
  0Ir  2f-2      -0.000045  0.000000  0.000000 -0.000000 -0.000936 -0.000000
  0Ir  2f+3       0.000000  0.000371 -0.018976 -0.002210 -0.000000 -0.014060
  0Ir  2f-3      -0.000000 -0.000336  0.017178 -0.002441  0.000000 -0.015546
  0Ir  3f0       -0.001313  0.000000  0.000000  0.000000 -0.007249  0.000000
  0Ir  3f+1      -0.000000 -0.018560 -0.010637  0.004748 -0.000000 -0.007982
  0Ir  3f-1      -0.000000 -0.019186 -0.010995 -0.004594 -0.000000  0.007723
  0Ir  3f+2       0.000001 -0.000000 -0.000000 -0.000000  0.000031 -0.000000
  0Ir  3f-2      -0.000017  0.000000  0.000000 -0.000000 -0.000920 -0.000000
  0Ir  3f+3       0.000000 -0.005483 -0.014542 -0.002229 -0.000000 -0.009293
  0Ir  3f-3      -0.000000  0.004963  0.013164 -0.002462  0.000000 -0.010276
  0Ir  1g0        0.000000 -0.000863  0.006251  0.000000  0.000000 -0.000001
  0Ir  1g+1      -0.000587  0.000000  0.000000  0.000000 -0.003485  0.000000
  0Ir  1g-1      -0.000607  0.000000 -0.000000 -0.000000 -0.003602 -0.000000
  0Ir  1g+2      -0.000000  0.000138  0.000035  0.004428  0.000000 -0.007239
  0Ir  1g-2      -0.000000 -0.004158 -0.001055  0.000147 -0.000000 -0.000241
  0Ir  1g+3      -0.000570  0.000000  0.000000  0.000000 -0.003759 -0.000000
  0Ir  1g-3       0.000516 -0.000000 -0.000000 -0.000000  0.003403 -0.000000
  0Ir  1g+4      -0.000000  0.002207 -0.013299  0.000567 -0.000000 -0.000016
  0Ir  1g-4      -0.000000  0.000147 -0.000883 -0.008536 -0.000000  0.000256
  0Ir  2g0        0.000000  0.000832  0.005012 -0.000000  0.000000 -0.000000
  0Ir  2g+1      -0.000616  0.000000  0.000000  0.000000 -0.003712  0.000000
  0Ir  2g-1      -0.000637  0.000000 -0.000000 -0.000000 -0.003837 -0.000000
  0Ir  2g+2      -0.000000  0.000173  0.000036  0.004178  0.000000 -0.005030
  0Ir  2g-2      -0.000000 -0.005225 -0.001097  0.000138 -0.000000 -0.000169
  0Ir  2g+3      -0.000590  0.000000  0.000000  0.000000 -0.004097  0.000000
  0Ir  2g-3       0.000534 -0.000000 -0.000000 -0.000000  0.003708  0.000000
  0Ir  2g+4       0.000000 -0.000765 -0.011184  0.000591 -0.000000 -0.000003
  0Ir  2g-4       0.000000 -0.000051 -0.000742 -0.008905 -0.000000  0.000066
  0Ir  1h0        0.000351 -0.000000 -0.000000 -0.000000  0.001795  0.000000
  0Ir  1h+1       0.000000 -0.001097  0.001369 -0.001162  0.000000  0.001030
  0Ir  1h-1       0.000000 -0.001134  0.001415  0.001124  0.000000 -0.000997
  0Ir  1h+2      -0.000000  0.000000  0.000000  0.000000 -0.000006 -0.000000
  0Ir  1h-2       0.000006 -0.000000 -0.000000  0.000000  0.000171  0.000000
  0Ir  1h+3      -0.000000 -0.002378  0.001282 -0.000009  0.000000  0.000974
  0Ir  1h-3       0.000000  0.002153 -0.001160 -0.000011 -0.000000  0.001077
  0Ir  1h+4      -0.000414  0.000000  0.000000  0.000000 -0.002102 -0.000000
  0Ir  1h-4      -0.000028  0.000000 -0.000000 -0.000000 -0.000139 -0.000000
  0Ir  1h+5       0.000000 -0.000541  0.002444 -0.002586 -0.000000  0.001541
  0Ir  1h-5       0.000000 -0.000639  0.002887  0.002190  0.000000 -0.001303
  1H   1s        -0.000000 -0.347742 -0.180204 -0.010979 -0.000000 -0.178390
  1H   2s        -0.000000 -0.167635 -0.005680 -0.062783 -0.000000 -0.059976
  1H   3s         0.000000  0.085946  0.062919 -0.020014  0.000000  0.039654
  1H   4s        -0.000000  0.023318 -0.002656  0.004266  0.000000 -0.000985
  1H   1pz       -0.001859  0.000000  0.000000  0.000000 -0.006598  0.000000
  1H   1px        0.000000  0.070723  0.108611 -0.025352  0.000000  0.091462
[...]
 1 H  dxz            18.9      17.2       0.0       0.0       0.0       0.0
 1 H  dx2y2           0.0       0.0       0.0       6.4       5.4       0.0
 1 H  dxy             0.0       0.0      16.1       0.1       0.1       0.0
 2 H  s               0.0       0.0       1.4      13.6      11.3       0.0
 2 H  pz              2.1       2.2       0.0       0.0       0.0       0.0
 2 H  px              0.0       0.0       3.0       0.1       0.0       0.0
 2 H  py              0.0       0.0       0.3       9.5      10.1       0.0
 2 H  dz2             0.0       0.0       0.8       2.4       1.5       0.0
 2 H  dyz            18.9      17.2       0.0       0.0       0.0       0.0
 2 H  dx2y2           0.0       0.0       0.2       6.5       5.4       0.0
 2 H  dxy             0.0       0.0      16.0       0.1       0.1       0.0



                      *****************************
                      * MAYER POPULATION ANALYSIS *
                      *****************************

  NA   - Mulliken gross atomic population
  ZA   - Total nuclear charge
  QA   - Mulliken gross atomic charge
  VA   - Mayer's total valence
  BVA  - Mayer's bonded valence
  FA   - Mayer's free valence

  ATOM       NA         ZA         QA         VA         BVA        FA
  0 Ir    73.3612    77.0000     3.6388    -7.0166    -7.1983     0.1817
  1 H      2.8194     1.0000    -1.8194    -0.4438    -0.5503     0.1064
  2 H      2.8194     1.0000    -1.8194    -0.4439    -0.5503     0.1065

  Mayer bond orders larger than 0.100000
B(  0-Ir,  1-H ) :  -3.5991 B(  0-Ir,  2-H ) :  -3.5992 B(  1-H ,  2-H ) :   3.0488 


-------
TIMINGS
-------

Total SCF time: 0 days 0 hours 41 min 0 sec 

Total time                  ....    2460.277 sec
Sum of individual times     ....    2460.168 sec  (100.0%)

SCF preparation             ....       0.122 sec  (  0.0%)
Fock matrix formation       ....    2459.380 sec  (100.0%)
  Startup                   ....       0.139 sec  (  0.0% of F)
  Coulomb+Exchange Fock     ....    2443.957 sec  ( 99.4% of F)
  XC integration            ....      15.029 sec  (  0.6% of F)
    XC Preparation          ....       0.000 sec  (  0.0% of XC)
    Basis function eval.    ....       4.628 sec  ( 30.8% of XC)
    Density eval.           ....       2.344 sec  ( 15.6% of XC)
    XC-Functional eval.     ....       0.527 sec  (  3.5% of XC)
    XC-Potential eval.      ....       7.234 sec  ( 48.1% of XC)
Diagonalization             ....       0.000 sec  (  0.0%)
Density matrix formation    ....       0.196 sec  (  0.0%)
Total Energy calculation    ....       0.049 sec  (  0.0%)
Population analysis         ....       0.069 sec  (  0.0%)
Orbital Transformation      ....       0.025 sec  (  0.0%)
Orbital Orthonormalization  ....       0.000 sec  (  0.0%)
DIIS solution               ....       0.286 sec  (  0.0%)
  MO trafo                  ....       0.000 sec  (  0.0 % of DIIS)
  Orb grad                  ....       0.000 sec  (  0.0 % of DIIS)
  Energy W gradient         ....       0.000 sec  (  0.0 % of DIIS)
  DIIS error                ....       0.011 sec  (  3.7 % of DIIS)
  DIIS work                 ....       0.227 sec  ( 79.4 % of DIIS)
  Form Q                    ....       0.000 sec  (  0.0 % of DIIS)
  Form QpQm                 ....       0.000 sec  (  0.0 % of DIIS)
  Exp/Cayley                ....       0.000 sec  (  0.0 % of DIIS)
  Orb update                ....       0.000 sec  (  0.0 % of DIIS)
  Wake-sleep                ....       0.037 sec  ( 12.8 % of DIIS)
SOSCF solution              ....       0.042 sec  (  0.0%)
  MO trafo                  ....       0.023 sec  ( 53.9 % of SOSCF)
  Orb grad                  ....       0.003 sec  (  6.9 % of SOSCF)
  Rot update                ....       0.003 sec  (  8.3 % of SOSCF)
  Step                      ....       0.013 sec  ( 30.7 % of SOSCF)
Finished LeanSCF after 2460.3 sec

Maximum memory used throughout the entire LEANSCF-calculation: 899.7 MB

------------------------------------------------------------------------------
                         ORCA PROPERTY INTEGRAL CALCULATIONS
------------------------------------------------------------------------------

GBWName                                   ... irh2_cpks_rotate.gbw
Number of atoms                           ...      3
Number of basis functions                 ...    150
Max core memory                           ...   1024 MB

Dipole integrals                          ... YES
Quadrupole integrals                      ...  NO
Linear momentum integrals                 ...  NO
Angular momentum integrals                ... YES
Higher moments length integrals           ...  NO
Higher moments velocity integrals         ...  NO
Kinetic energy integrals                  ... YES
GIAO right hand sides                     ...  NO
GIAO dipole derivative integrals          ...  NO
SOC integrals                             ... YES
EPR diamagnetic integrals (GIAO)          ...  NO
EPR gauge integrals                       ... YES
Field gradient integrals                  ...  NO (   0 nuclei)
Spin-dipole/Fermi contact integrals       ...  NO (   0 nuclei)
Contact density integrals                 ...  NO (   0 nuclei)
Nucleus-orbit integrals                   ...  NO (   0 nuclei)
Geometric perturbations                   ...  NO (   3 nuclei)

Choice of electric origin   ... Center of mass
Position of electric origin ... (  0.0146,  0.0151,  0.0000) 
Choice of magnetic origin   ... Center of nuclear charge
Position of magnetic origin ... (  0.0356,  0.0368,  0.0000) 

Calculating integrals                     ... Electric Dipole (Length)     done (  0.0 sec)
Calculating integrals                     ... Kinetic Energy               done (  0.0 sec)
Calculating integrals                     ... Angular Momentum  (MagOri)   done (  0.0 sec)
Calculating integrals                     ... EPR-gauge integrals          done (  0.1 sec)
  g-Tensor DSO: Zeff (2-electron approx.) ... YES 
Calculating integrals                     ... Spin-Orbit Coupling
  Spin-orbit operator                     ... Spin-Orbit Mean-Field (SOMF)
      1-El-Flag                           ...  1 ON
      Coulomb-Flag                        ...  2 ON (Via COSJ)
      Exchange-Flag                       ...  3 ON (AMFI type)
      DFT-Correlation Flag                ...  0 OFF
      Max-Center                          ...  4   
      Relativistic Picture Change         ... OFF     
  Electron density on the grid            ... done (%5.1 lf sec) NEL=     0.242798000
  SOC Coulomb terms                       ... done (%5.1 lf sec)
  One-electron part                       ... done (  0.0 sec)
  Two-electron DoJ,X=0,1 MaxCenter=1      ... done (834.3 sec)
  SOC integrals done (871.5 sec)

Property integrals calculated in 871.6 sec

Maximum memory used throughout the entire PROPINT-calculation: 3631.3 MB

-------------------------   --------------------
FINAL SINGLE POINT ENERGY    -14602.014073055376
-------------------------   --------------------

------------------------------------------------------------------------------
                            ORCA SCF RESPONSE CALCULATION
------------------------------------------------------------------------------

GBWName                                 ... irh2_cpks_rotate.gbw
Number of atoms                         ...      3
Number of basis functions               ...    150
Max core memory                         ...   1024 MB

Electric field perturbation             ...  NO
Quadrupolar field perturbation          ...  NO
Magnetic field perturbation (no GIAO)   ... YES
Magnetic field perturbation (with GIAO) ...  NO
Linear momentum (velocity) perturbation ...  NO
Spin-orbit coupling perturbation        ...  NO
Choice of electric origin               ... Center of mass
Position of electric origin             ...     0.014602     0.015094     0.000000
Choice of magnetic origin               ... Center of nuclear charge
Position of magnetic origin             ...     0.035616     0.036817     0.000000
Nuclear geometric perturbations         ...  NO (   9 perturbations)
Nucleus-orbit perturbations             ...  NO (   0 perturbations)
Spin-dipole/Fermi contact perturbations ...  NO (   0 perturbations)

Total number of real perturbations      ...      0
Total number of imaginary perturbations ...      3
Total number of triplet perturbations   ...      0
Total number of SOC perturbations       ...      0


                              ***************************
                              * IMAGINARY PERTURBATIONS *
                              ***************************



-------------------
SHARK CP-SCF DRIVER
-------------------

Dimension of the orbital basis          ...    150
Dimension of the CPSCF-problem          ...   8729
Number of operators                     ...      2
Max. number of iterations               ...    128
Convergence Tolerance                   ... 1.0e-03
Number of perturbations                 ...      3
Perturbation type                       ... IMAGINARY

----------------------------
POPLE LINEAR EQUATION SOLVER
----------------------------

  ITERATION   0:   ||err||_max =   4.9993e+00 ( 161.2 sec   0/  3 done)
  ITERATION   1:   ||err||_max =   1.9742e+00 ( 163.4 sec   0/  3 done)
  ITERATION   2:   ||err||_max =   1.9706e-01 ( 164.2 sec   0/  3 done)
  ITERATION   3:   ||err||_max =   1.1245e-02 ( 160.3 sec   2/  3 done)
  ITERATION   4:   ||err||_max =   6.6199e-04 ( 161.0 sec   3/  3 done)

CP-SCF equations solved in 810.1 sec
Response densities calculated in   0.0 sec

Maximum memory used throughout the entire SCFRESP-calculation: 903.1 MB

------------------------------------------------------------------------------
                              ORCA PROPERTY CALCULATIONS
------------------------------------------------------------------------------

GBWName                                 ... irh2_cpks_rotate.gbw
Number of atoms                         ...      3
Number of basis functions               ...    150
Max core memory                         ...   1024 MB

Electric properties:
Dipole moment                           ... YES
Quadrupole moment                       ...  NO
Static polarizability (Dipole/Dipole)   ...  NO
Static polarizability (Dipole/Quad.)    ...  NO
Static polarizability (Quad./Quad.)     ...  NO
Static polarizability (Velocity)        ...  NO

Atomic electric properties:
Dipole moment                           ...  NO
Quadrupole moment                       ...  NO
Static polarizability                   ...  NO

Choice of electric origin               ... Center of mass
Position of electric origin             ...     0.014602     0.015094     0.000000

General magnetic properties:
Magnetizability                         ...  NO

EPR properties:
g-Tensor (aka g-matrix)                 ... YES
Zero-Field splitting spin-orbit         ...  NO
Zero-field splitting spin-spin          ...  NO
Hyperfine couplings                     ...  NO (   0 nuclei)
Quadrupole couplings                    ...  NO (   0 nuclei)
Contact density                         ...  NO (   0 nuclei)

NMR properties:
Chemical shifts                         ...  NO (   0 nuclei)
Spin-rotation constants                 ...  NO (   0 nuclei)
Spin-spin couplings                     ...  NO (   0 nuclei,    0 pairs)

Choice of magnetic origin               ... Center of nuclear charge
Position of magnetic origin             ...     0.035616     0.036817     0.000000

Properties with geometric perturbations:
SCF Hessian                             ...  NO
IR spectrum                             ...  NO
VCD spectrum                            ...  NO
X-ray spectroscopy properties:
SCF XES/XAS/RIXS spectra                ...  NO


-------------
DIPOLE MOMENT
-------------

Method             : SCF
Type of density    : Electron Density
Multiplicity       :   2
Irrep              :   0
Energy             : -14602.0140730553757749 Eh
Relativity type    : 
Basis              : AO
                                X                 Y                 Z
Electronic contribution:     -1.603052145      -1.657141840       0.000000024
Nuclear contribution   :      1.660146506       1.716132462       0.000000000
                        -----------------------------------------
Total Dipole Moment    :      0.057094361       0.058990622       0.000000024
                        -----------------------------------------
Magnitude (a.u.)       :      0.082095429
Magnitude (Debye)      :      0.208669997



--------------------
Rotational spectrum 
--------------------
 
Rotational constants in cm-1:             7.370031             6.825420             3.543639 
Rotational constants in MHz :        220947.965845        204620.939026        106235.628895 

Dipole components along the rotational axes: 
x,y,z [a.u.] :    -0.000020     0.082095     0.000000 
x,y,z [Debye]:    -0.000052     0.208670     0.000000 

 

Dipole moment calculation done in   0.0 sec 

-------------------
ELECTRONIC G-MATRIX
-------------------

Method             : SCF
Type of density    : Spin Density
Type of derivative : Magnetic Field (no GIAOs) (Direction=X)
Multiplicity       :   2
Irrep              :   0
Relativity type    : 
Basis              : AO
The g-matrix: 
              1.8418493   -0.1661545   -0.0000000
             -0.1661536    1.8308288    0.0000000
             -0.0000000    0.0000000   -5.6213313
DSO contribution to g-matrix:
              0.0004998    0.0000607   -0.0000000
              0.0000607    0.0005038   -0.0000000
              0.0000000   -0.0000000    0.0008119
PSO contribution to g-matrix:
             -0.1606556   -0.1662152   -0.0000000
             -0.1662143   -0.1716802    0.0000000
             -0.0000000    0.0000000   -7.6241484

Breakdown of the contributions
 gel          2.0023193    2.0023193    2.0023193
 gRMC        -0.0003141   -0.0003141   -0.0003141
 gDSO(1el)    0.0005625    0.0004410    0.0008119
 gDSO(2el)    0.0000000    0.0000000    0.0000000
 gDSO(tot)    0.0005625    0.0004410    0.0008119
 gPSO(1el)   -0.3433277    0.0004526   -7.8160380
 gPSO(2el)    0.0108537   -0.0003143    0.1918897
 gPSO(tot)   -0.3324741    0.0001383   -7.6241484
             ----------   ----------   ----------
 g(tot)       1.6700936    2.0025844    5.6213313 iso=  3.0980031
 Delta-g     -0.3322257    0.0002651    3.6190120 iso=  1.0956838

 Orientation: 
  X           0.6952893    0.7187300   -0.0000000
  Y           0.7187300   -0.6952893   -0.0000000
  Z          -0.0000000   -0.0000000   -1.0000000

Notes:  (1) The g-matrix conforms to the "BgS" spin Hamiltonian convention. 
        (2) The principal values are square roots of the eigenvalues of g*gT.
        (3) Orientations are eigenvectors of g*gT written as column vectors.
        (4) Individual contributions are projections of the full matrices onto the eigenvectors of g*gT.
        (5) Tensor is right-handed.

-------------------------------
G-TENSOR ATOM AND BOND ANALYSIS
-------------------------------

 NOTE: We project onto the eigenvectors of the total g-matrix
       that means that contributions do not necessarily add up to the final total g-values
       However, the values should be close and indicate which atoms dominantly contribute

 NOTE: We ONLY analyze the PSO term here!

 Ir-  0 :   -0.3323789 *   0.0001297 *  -7.6299463 *  iso= -2.6540651 *
 H -  1 :    0.0000193     0.0000085 *   0.0002716    iso=  0.0000998  
 H -  2 :    0.0000193     0.0000085 *   0.0002716    iso=  0.0000998  
           ------------- ------------- ------------- -----------------
 Total-1c   -0.3323402     0.0001467    -7.6294031        -2.6538655
 Total-2c   -0.0001339    -0.0000084     0.0052547         0.0017041
 Total      -0.3324741     0.0001383    -7.6241484        -2.6521614

EPR g-tensor done in   0.1 sec 

Maximum memory used throughout the entire PROP-calculation: 17.1 MB

--------------------------------
SUGGESTED CITATIONS FOR THIS RUN
--------------------------------

Below you find a list of papers that are relevant to this ORCA run
We neither can nor want to force you to cite these papers, but we appreciate if you do
You receive ORCA, which is the product of decades of hard work by many enthusiastic individuals, for free
The only thing we kindly ask in return is that you cite our papers,
We deeply appreciate it, if you show your appreciation for ORCA by not just citing the generic ORCA reference.

Please note that relegating all ORCA citations to the supporting information does *not* help us.
SI sections are not indexed - citations you put there will not count into any citation statistics
But we need these citations in order to attract the funding resources that allow us to do what we are doing

Therefore, if you are a happy ORCA user, please consider citing a few of the papers listed below in the main body of your paper

In addition to the list printed below, the program has created the file irh2_cpks_rotate.bibtex that contains the list in bibtex format
You can import this file easily into all common literature databanks and citation aid programs


List of essential papers. We consider these as the minimum necessary citations

  1. Neese,F.
     Software update: the ORCA program system, version 5.0
     WIRES Comput. Molec. Sci., 2022 12(1)e1606
     doi.org/10.1002/wcms.1606

List of papers to cite with high priority. The work reported in these papers was absolutely
necessary for this run to complete.
Our perspective: the developers of density functionals and basis sets usually get cited in chemistry papers
Good! But without the algorithms to do something with them, the functionals or basis sets would not do anything.
Hence, in our opinion, the algorithm design and method developments papers are equally worthy of getting cited

  1. Neese,F.
     Prediction of electron paramagnetic resonance g values using coupled perturbed Hartree-Fock and Kohn-Sham theory
     J. Chem. Phys., 2001 115(24)11080-11096
     doi.org/10.1063/1.1419058
  2. Neese,F.
     Efficient and accurate approximations to the molecular spin-orbit coupling operator and their use in molecular g-tensor calculations
     J. Chem. Phys., 2005 122(3)Art. No. 034107
     doi.org/10.1063/1.1829047
  3. Neese,F.
     The SHARK Integral Generation and Digestion System
     J. Comp. Chem., 2022  1-16
     doi.org/10.1002/jcc.26942

List of suggested additional citations. These are papers that are important in the 'surrounding' of 
of this run, or papers that preceded the highly important papers. If you like your results we are grateful for a citation.

  1. Neese,F.
     The ORCA program system
     WIRES Comput. Molec. Sci., 2012 2(1)73-78
     doi.org/10.1002/wcms.81
  2. Neese,F.
     Software update: the ORCA program system, version 4.0
     WIRES Comput. Molec. Sci., 2018 8(1)1-6
     doi.org/10.1002/wcms.1327
  3. Neese,F.; Wennmohs,F.; Becker,U.; Riplinger,C.
     The ORCA quantum chemistry program package
     J. Chem. Phys., 2020 152 Art. No. L224108
     doi.org/10.1063/5.0004608

List of optional additional citations

  1. Neese,F.
     Approximate second-order SCF convergence for spin unrestricted wavefunctions
     Chem. Phys. Lett., 2000 325(1-3)93-98
     doi.org/10.1016/s0009-2614(00)00662-x

Timings for individual modules:

Sum of individual times          ...     4155.441 sec (=  69.257 min)
Startup calculation              ...       10.494 sec (=   0.175 min)   0.3 %
SCF iterations                   ...     2462.524 sec (=  41.042 min)  59.3 %
Property integrals               ...      871.692 sec (=  14.528 min)  21.0 %
SCF Response                     ...      810.516 sec (=  13.509 min)  19.5 %
Property calculations            ...        0.214 sec (=   0.004 min)   0.0 %
                             ****ORCA TERMINATED NORMALLY****
TOTAL RUN TIME: 0 days 1 hours 9 minutes 15 seconds 831 msec
