
                                 *****************
                                 * O   R   C   A *
                                 *****************

                                            #,                                       
                                            ###                                      
                                            ####                                     
                                            #####                                    
                                            ######                                   
                                           ########,                                 
                                     ,,################,,,,,                         
                               ,,#################################,,                 
                          ,,##########################################,,             
                       ,#########################################, ''#####,          
                    ,#############################################,,   '####,        
                  ,##################################################,,,,####,       
                ,###########''''           ''''###############################       
              ,#####''   ,,,,##########,,,,          '''####'''          '####       
            ,##' ,,,,###########################,,,                        '##       
           ' ,,###''''                  '''############,,,                           
         ,,##''                                '''############,,,,        ,,,,,,###''
      ,#''                                            '''#######################'''  
     '                                                          ''''####''''         
             ,#######,   #######,   ,#######,      ##                                
            ,#'     '#,  ##    ##  ,#'     '#,    #''#        ,####,   ,####,        
            ##       ##  ##   ,#'  ##            #'  '#       #'       #'  '#        
            ##       ##  #######   ##           ,######,      #####,   #    #        
            '#,     ,#'  ##    ##  '#,     ,#' ,#      #,     #,   #   #,  ,#        
             '#######'   ##     ##  '#######'  #'      '#     '####' # '####'        



                #########################################################
                #                        -***-                          #
                #          Department of theory and spectroscopy        #
                #                                                       #
                #                      Frank Neese                      #
                #                                                       #
                #     Directorship, Architecture, Infrastructure        #
                #                    SHARK, DRIVERS                     #
                #        Core code/Algorithms in most modules           #
                #                                                       #
                #        Max Planck Institute fuer Kohlenforschung      #
                #                Kaiser Wilhelm Platz 1                 #
                #                 D-45470 Muelheim/Ruhr                 #
                #                      Germany                          #
                #                                                       #
                #                  All rights reserved                  #
                #                        -***-                          #
                #########################################################


                         Program Version 6.0.0  -   RELEASE  -


 With contributions from (in alphabetic order):
   Daniel Aravena         : Magnetic Suceptibility
   Michael Atanasov       : Ab Initio Ligand Field Theory (pilot matlab implementation)
   Alexander A. Auer      : GIAO ZORA, VPT2 properties, NMR spectrum
   Ute Becker             : All parallelization in ORCA, NUMFREQ, NUMCALC
   Giovanni Bistoni       : ED, misc. LED, open-shell LED, HFLD
   Martin Brehm           : Molecular dynamics
   Dmytro Bykov           : pre 5.0 version of the SCF Hessian
   Marcos Casanova-Páez   : Triplet and SCS-CIS(D). UHF-(DLPNO)-IP/EA/STEOM-CCSD. UHF-CVS-IP/STEOM-CCSD
   Vijay G. Chilkuri      : MRCI spin determinant printing, contributions to CSF-ICE
   Pauline Colinet        : FMM embedding
   Dipayan Datta          : RHF DLPNO-CCSD density
   Achintya Kumar Dutta   : EOM-CC, STEOM-CC
   Nicolas Foglia         : Exact transition moments, OPA infrastructure, MCD improvements
   Dmitry Ganyushin       : Spin-Orbit,Spin-Spin,Magnetic field MRCI
   Miquel Garcia          : C-PCM and meta-GGA Hessian, CCSD/C-PCM, Gaussian charge scheme
   Tiago L. C. Gouveia    : GS-ROHF, GS-ROCIS
   Yang Guo               : DLPNO-NEVPT2, F12-NEVPT2, CIM, IAO-localization
   Andreas Hansen         : Spin unrestricted coupled pair/coupled cluster methods
   Ingolf Harden          : AUTO-CI MPn and infrastructure 
   Benjamin Helmich-Paris : MC-RPA, TRAH-(SCF,CASSCF), AVAS, COSX integrals, SCF dyn. polar.
   Lee Huntington         : MR-EOM, pCC
   Robert Izsak           : Overlap fitted RIJCOSX, COSX-SCS-MP3, EOM
   Riya Kayal             : Wick's Theorem for AUTO-CI, AUTO-CI UHF-CCSDT
   Emily Kempfer          : AUTO-CI, RHF CISDT and CCSDT
   Christian Kollmar      : KDIIS, OOCD, Brueckner-CCSD(T), CCSD density, CASPT2, CASPT2-K, improved NEVPT2
   Axel Koslowski         : Symmetry handling
   Simone Kossmann        : Meta GGA functionals, TD-DFT gradient, OOMP2, (MP2 Hessian; deprecated post 5.0)
   Lucas Lang             : DCDCAS
   Marvin Lechner         : AUTO-CI (C++ implementation), FIC-MRCC
   Spencer Leger          : CASSCF response
   Dagmar Lenk            : GEPOL surface, SMD, ORCA-2-JSON
   Dimitrios Liakos       : Extrapolation schemes; Compound Job, initial MDCI parallelization
   Dimitrios Manganas     : Further ROCIS development; embedding schemes. LFT, Crystal Embedding
   Dimitrios Pantazis     : SARC Basis sets
   Anastasios Papadopoulos: AUTO-CI, single reference methods and gradients
   Taras Petrenko         : pre 6.0 DFT Hessian and TD-DFT gradient, (ASA, deprecated), ECA, 1-Electron XAS/XES, NRVS
   Peter Pinski           : DLPNO-MP2, DLPNO-MP2 Gradient
   Christoph Reimann      : Effective Core Potentials
   Marius Retegan         : Local ZFS, SOC
   Christoph Riplinger    : Optimizer, TS searches, QM/MM, DLPNO-CCSD(T), (RO)-DLPNO pert. Triples
   Michael Roemelt        : Original ROCIS implementation
   Masaaki Saitow         : Open-shell DLPNO-CCSD energy and density
   Barbara Sandhoefer     : DKH picture change effects
   Kantharuban Sivalingam : CASSCF convergence/infrastructure, NEVPT2 and variants, FIC-MRCI
   Bernardo de Souza      : ESD, SOC TD-DFT
   Georgi Stoychev        : AutoAux, RI-MP2 NMR, DLPNO-MP2 response, X2C
   Van Anh Tran           : RI-MP2 g-tensors
   Willem Van den Heuvel  : Paramagnetic NMR
   Zikuan Wang            : NOTCH, Electric field optimization 
   Frank Wennmohs         : Technical directorship and infrastructure
   Hang Xu                : AUTO-CI-Response properties 


 We gratefully acknowledge several colleagues who have allowed us to
 interface, adapt or use parts of their codes:
   Stefan Grimme, W. Hujo, H. Kruse, P. Pracht,  : VdW corrections, initial TS optimization,
                  C. Bannwarth, S. Ehlert,         DFT functionals, gCP, sTDA/sTD-DF
                  L. Wittmann, M. Mueller
   Ed Valeev, F. Pavosevic, A. Kumar             : LibInt (2-el integral package), F12 methods
   Garnet Chan, S. Sharma, J. Yang, R. Olivares  : DMRG
   Ulf Ekstrom                                   : XCFun DFT Library
   Mihaly Kallay                                 : mrcc  (arbitrary order and MRCC methods)
   Frank Weinhold                                : gennbo (NPA and NBO analysis)
   Simon Mueller                                 : openCOSMO-RS
   Christopher J. Cramer and Donald G. Truhlar   : smd solvation model
   Lars Goerigk                                  : TD-DFT with DH, B97 family of functionals
   V. Asgeirsson, H. Jonsson                     : NEB implementation
   FAccTs GmbH                                   : IRC, NEB, NEB-TS, DLPNO-Multilevel, CI-OPT
                                                   MM, QMMM, 2- and 3-layer-ONIOM, Crystal-QMMM,
                                                   LR-CPCM, SF, NACMEs, symmetry and pop. for TD-DFT,
                                                   nearIR, NL-DFT gradient (VV10), updates on ESD,
                                                   ML-optimized integration grids, MBIS, APM,
                                                   GOAT, DOCKER, SOLVATOR, interface openCOSMO-RS
   S Lehtola, MJT Oliveira, MAL Marques          : LibXC Library
   Liviu Ungur et al                             : ANISO software


 Your calculation uses the libint2 library for the computation of 2-el integrals
 For citations please refer to: http://libint.valeyev.net

 Your ORCA version has been built with support for libXC version: 6.2.2
 For citations please refer to: https://libxc.gitlab.io

 This ORCA versions uses:
   CBLAS   interface :  Fast vector & matrix operations
   LAPACKE interface :  Fast linear algebra routines
   SCALAPACK package :  Parallel linear algebra routines
   Shared memory     :  Shared parallel matrices
   BLAS/LAPACK       :  OpenBLAS 0.3.27  USE64BITINT DYNAMIC_ARCH NO_AFFINITY SkylakeX SINGLE_THREADED
        Core in use  :  SkylakeX
   Copyright (c) 2011-2014, The OpenBLAS Project




************************************
The Z-Matrix will be read from file: nbr.gzmt
************************************


BuildBasisSet found the ANOflag in the standard basis to be TRUE and will set the global ANO flag
================================================================================

----- Orbital basis set information -----
Your calculation utilizes the basis: ANO-RCC-TZP
   H, He:       P.-O. Widmark, P.-A. Malmqvist, and B. O. Roos, Theor. Chim. Acta 77, 291 (1990).
   s block:     B. O. Roos, V. Veryazov and P.-O. Widmark, Theor. Chem. Acc. 111, 345 (2004).
   p block:     B. O. Roos, R. Lindh, P.-A. Malmqvist, V. Veryazov, and P.-O. Widmark, J. Phys. Chem. A 108, 2851 (2004).
   d block:     B. O. Roos, R. Lindh, P.-A. Malmqvist, V. Veryazov, and P.-O. Widmark, J. Phys. Chem. A 109, 6575 (2005).
   actinides:   B. O. Roos, R. Lindh, P.-A. Malmqvist, V. Veryazov, and P.-O. Widmark, Chem. Phys. Letters 409, 295 (2005).
   lanthanides: B. O. Roos, R. Lindh, P.-A. Malmqvist, V. Veryazov, P.-O. Widmark and A. C. Borin, J. Phys. Chem. A 112, 11431 (2008).

================================================================================
                                        WARNINGS
                       Please study these warnings very carefully!
================================================================================


WARNING: your system is open-shell and RHF/RKS was chosen
  ===> : WILL SWITCH to UHF/UKS


================================================================================
                                       INPUT FILE
================================================================================
NAME = nbr_cpks.inp
|  1> !B3LYP ANO-RCC-TZP SOMF(1X) LARGEPRINT PrintMOs
|  2> 
|  3> %METHOD
|  4>  Functional B3LYP_G
|  5>  RI false
|  6> END
|  7> 
|  8> %SCF
|  9>  MaxIter 500			# Max. no. of SCF iterations
| 10>  Thresh 1e-12			# Threshold for neglecting integrals
| 11>  TolE 1e-8			# Energy convergence threshold
| 12> END
| 13> 
| 14> %EPRNMR 			# Control of EPR and NMR calculations
| 15>  gtensor 1			# Calculate the g-tensor 
| 16>  ori CenterOfNucCharge		# origin for magnetic properties: CenterOfElCharge, CenterOfNucCharge
| 17>  printlevel 4			# detailed information
| 18> END
| 19> 
| 20> * gzmtfile 0 3 nbr.gzmt 	# Coordinates
| 21> 
| 22> 
| 23>                          ****END OF INPUT****
================================================================================

                       ****************************
                       * Single Point Calculation *
                       ****************************

---------------------------------
CARTESIAN COORDINATES (ANGSTROEM)
---------------------------------
  N      0.000000    0.000000    0.000000
  Br     1.808000    0.000000    0.000000

----------------------------
CARTESIAN COORDINATES (A.U.)
----------------------------
  NO LB      ZA    FRAG     MASS         X           Y           Z
   0 N     7.0000    0    14.007    0.000000    0.000000    0.000000
   1 Br   35.0000    0    79.900    3.416625    0.000000    0.000000

--------------------------------
INTERNAL COORDINATES (ANGSTROEM)
--------------------------------
 N      0   0   0     0.000000000000     0.00000000     0.00000000
 Br     1   0   0     1.808000000000     0.00000000     0.00000000

---------------------------
INTERNAL COORDINATES (A.U.)
---------------------------
 N      0   0   0     0.000000000000     0.00000000     0.00000000
 Br     1   0   0     3.416624850130     0.00000000     0.00000000

---------------------
BASIS SET INFORMATION
---------------------
There are 2 groups of distinct atoms

 Group   1 Type N   : 56s27p8d3f contracted to 4s3p2d1f pattern {14141414/999/44/3}
 Group   2 Type Br  : 120s85p33d8f2g contracted to 6s5p3d2f1g pattern {202020202020/1717171717/111111/44/2}

Atom   0N    basis set group =>   1
Atom   1Br   basis set group =>   2

-------------------------
BASIS SET IN INPUT FORMAT
-------------------------

 # Basis set for element : N 
 NewGTO N 
 S 14 
   1   74761.7150000000      0.0001182600
   2   11123.6540000000      0.0005172900
   3    2512.6857000000      0.0022666600
   4     703.7772900000      0.0091452900
   5     225.4787900000      0.0323934299
   6      79.6158100000      0.0977079297
   7      30.2372830000      0.2317036792
   8      12.2636220000      0.3768898887
   9       5.2650860000      0.3177420689
  10       2.3334710000      0.0821130897
  11       0.9018560000      0.0033120900
  12       0.3583360000      0.0037208200
  13       0.1410930000      0.0031654200
  14       0.0493830000      0.0004595800
 S 14 
   1   74761.7150000000     -0.0000270700
   2   11123.6540000000     -0.0001183700
   3    2512.6857000000     -0.0005203800
   4     703.7772900000     -0.0021029300
   5     225.4787900000     -0.0075682000
   6      79.6158100000     -0.0234676701
   7      30.2372830000     -0.0604290102
   8      12.2636220000     -0.1170549104
   9       5.2650860000     -0.1555321506
  10       2.3334710000     -0.0246893501
  11       0.9018560000      0.3625054514
  12       0.3583360000      0.5550845021
  13       0.1410930000      0.2148376908
  14       0.0493830000      0.0089838500
 S 14 
   1   74761.7150000000      0.0000187600
   2   11123.6540000000      0.0000811800
   3    2512.6857000000      0.0003659000
   4     703.7772900000      0.0014430400
   5     225.4787900000      0.0055318400
   6      79.6158100000      0.0172435900
   7      30.2372830000      0.0527954800
   8      12.2636220000      0.1152881299
   9       5.2650860000      0.2352593898
  10       2.3334710000     -0.0489638700
  11       0.9018560000     -1.0232177390
  12       0.3583360000     -0.1481586599
  13       0.1410930000      1.0215575390
  14       0.0493830000      0.1724018298
 S 14 
   1   74761.7150000000     -0.0000494400
   2   11123.6540000000     -0.0002073400
   3    2512.6857000000     -0.0009867600
   4     703.7772900000     -0.0035422800
   5     225.4787900000     -0.0148099700
   6      79.6158100000     -0.0379156800
   7      30.2372830000     -0.1257055399
   8      12.2636220000     -0.1456239499
   9       5.2650860000     -0.4732570997
  10       2.3334710000      0.8968759094
  11       0.9018560000      1.2597585391
  12       0.3583360000     -2.5330381983
  13       0.1410930000      0.8923431494
  14       0.0493830000      0.5447725696
 P 9 
   1     126.6665700000      0.0012336300
   2      29.8373890000      0.0094934100
   3       9.3940380000      0.0429396200
   4       3.4051040000      0.1362925399
   5       1.3500000000      0.2921362499
   6       0.5576960000      0.3887887598
   7       0.2324490000      0.2946801399
   8       0.0942640000      0.0801287600
   9       0.0329920000      0.0005405200
 P 9 
   1     126.6665700000     -0.0014662300
   2      29.8373890000     -0.0118214800
   3       9.3940380000     -0.0498312599
   4       3.4051040000     -0.1730904198
   5       1.3500000000     -0.4732370794
   6       0.5576960000     -0.2055113197
   7       0.2324490000      0.5910379792
   8       0.0942640000      0.4511796794
   9       0.0329920000      0.0136747200
 P 9 
   1     126.6665700000      0.0026572100
   2      29.8373890000      0.0278559300
   3       9.3940380000      0.1017958800
   4       3.4051040000      0.5038263901
   5       1.3500000000      0.5153194801
   6       0.5576960000     -1.2501138501
   7       0.2324490000      0.0250603500
   8       0.0942640000      0.7076929701
   9       0.0329920000      0.0139397500
 D 4 
   1       2.7500000000      0.1473016505
   2       0.9625000000      0.5502182618
   3       0.3368750000      0.4452560414
   4       0.1179060000      0.0494286902
 D 4 
   1       2.7500000000     -0.4440843393
   2       0.9625000000     -0.5913847991
   3       0.3368750000      0.8651336187
   4       0.1179060000      0.1664048297
 F 3 
   1       1.8000000000      0.3320900824
   2       0.7200000000      0.5699105542
   3       0.2880000000      0.2868327321
  end;

 # Basis set for element : Br
 NewGTO Br
 S 20 
   1  17028964.8999999985     -0.0001346200
   2  2186438.8100000001     -0.0004422900
   3  426256.8710000000     -0.0013009400
   4  105103.6700000000     -0.0035026100
   5   30487.8213000000     -0.0091834000
   6    9970.0519700000     -0.0240540300
   7    3574.6435200000     -0.0623965099
   8    1376.8552900000     -0.1503339298
   9     560.7329300000     -0.2965918497
  10     238.7342180000     -0.3819122596
  11     104.7731420000     -0.2120706098
  12      45.0684265000     -0.0232767800
  13      20.6137781000     -0.0088812400
  14       9.4444506200     -0.0012354500
  15       4.2525200500      0.0164741900
  16       1.8726199600      0.0127363900
  17       0.7460375500      0.0009744500
  18       0.3270168100      0.0027168700
  19       0.1315808200      0.0008790300
  20       0.0526323200      0.0000192900
 S 20 
   1  17028964.8999999985      0.0000454800
   2  2186438.8100000001      0.0001495600
   3  426256.8710000000      0.0004407800
   4  105103.6700000000      0.0011912600
   5   30487.8213000000      0.0031453700
   6    9970.0519700000      0.0083524300
   7    3574.6435200000      0.0222819601
   8    1376.8552900000      0.0570694602
   9     560.7329300000      0.1288531404
  10     238.7342180000      0.2198675607
  11     104.7731420000      0.1604670705
  12      45.0684265000     -0.3390375110
  13      20.6137781000     -0.7316590222
  14       9.4444506200     -0.2489581007
  15       4.2525200500      0.1218745104
  16       1.8726199600      0.0963794103
  17       0.7460375500      0.0056312500
  18       0.3270168100      0.0053664500
  19       0.1315808200      0.0013061000
  20       0.0526323200     -0.0000019100
 S 20 
   1  17028964.8999999985      0.0000095400
   2  2186438.8100000001      0.0000313700
   3  426256.8710000000      0.0000924200
   4  105103.6700000000      0.0002495900
   5   30487.8213000000      0.0006582200
   6    9970.0519700000      0.0017433500
   7    3574.6435200000      0.0046285700
   8    1376.8552900000      0.0117414200
   9     560.7329300000      0.0260824901
  10     238.7342180000      0.0438873101
  11     104.7731420000      0.0336742301
  12      45.0684265000     -0.0846034403
  13      20.6137781000     -0.3015988710
  14       9.4444506200     -0.0855491803
  15       4.2525200500      0.5208826717
  16       1.8726199600      0.3132148810
  17       0.7460375500      0.1041900503
  18       0.3270168100      0.3014923410
  19       0.1315808200      0.1227854204
  20       0.0526323200      0.0034349000
 S 20 
   1  17028964.8999999985     -0.0000097400
   2  2186438.8100000001     -0.0000320200
   3  426256.8710000000     -0.0000943900
   4  105103.6700000000     -0.0002551200
   5   30487.8213000000     -0.0006739300
   6    9970.0519700000     -0.0017904300
   7    3574.6435200000     -0.0047839100
   8    1376.8552900000     -0.0122933600
   9     560.7329300000     -0.0280337701
  10     238.7342180000     -0.0491900401
  11     104.7731420000     -0.0385605201
  12      45.0684265000      0.1019639503
  13      20.6137781000      0.3365871610
  14       9.4444506200      0.0998243703
  15       4.2525200500     -0.5862395717
  16       1.8726199600     -0.6520206519
  17       0.7460375500      0.1903972106
  18       0.3270168100      0.6764407520
  19       0.1315808200      0.2883468209
  20       0.0526323200      0.0077377500
 S 20 
   1  17028964.8999999985      0.0000049600
   2  2186438.8100000001      0.0000163300
   3  426256.8710000000      0.0000480800
   4  105103.6700000000      0.0001305200
   5   30487.8213000000      0.0003428300
   6    9970.0519700000      0.0009243800
   7    3574.6435200000      0.0024382000
   8    1376.8552900000      0.0064965300
   9     560.7329300000      0.0146122499
  10     238.7342180000      0.0278805999
  11     104.7731420000      0.0189715399
  12      45.0684265000     -0.0519245598
  13      20.6137781000     -0.1975815392
  14       9.4444506200     -0.0118392700
  15       4.2525200500      0.2621242790
  16       1.8726199600      0.7701900270
  17       0.7460375500     -1.0750495158
  18       0.3270168100     -0.9526147063
  19       0.1315808200      1.2854438350
  20       0.0526323200      0.2835877689
 S 20 
   1  17028964.8999999985     -0.0000083700
   2  2186438.8100000001     -0.0000275100
   3  426256.8710000000     -0.0000812000
   4  105103.6700000000     -0.0002186400
   5   30487.8213000000     -0.0005811000
   6    9970.0519700000     -0.0015253300
   7    3574.6435200000     -0.0041356700
   8    1376.8552900000     -0.0103485000
   9     560.7329300000     -0.0241748700
  10     238.7342180000     -0.0400529500
  11     104.7731420000     -0.0352194600
  12      45.0684265000      0.0978913499
  13      20.6137781000      0.2896931398
  14       9.4444506200      0.0925960099
  15       4.2525200500     -0.7955085596
  16       1.8726199600     -0.9244639895
  17       0.7460375500      3.9883068377
  18       0.3270168100     -3.7006424079
  19       0.1315808200      0.5673542597
  20       0.0526323200      0.7831826596
 P 17 
   1  161308.0880000000      0.0000439400
   2   24714.5235000000      0.0002311500
   3    5979.8681500000      0.0011139600
   4    1880.7724500000      0.0049645500
   5     697.0986730000      0.0195673501
   6     287.8652100000      0.0647954504
   7     128.2459540000      0.1688714210
   8      60.1299881000      0.3177099619
   9      29.2171045000      0.3707603822
  10      14.4495618000      0.2027700412
  11       6.9484920700      0.0388261502
  12       3.3070278200      0.0073843500
  13       1.5587866100      0.0032143500
  14       0.6085795600     -0.0000024800
  15       0.2431966500     -0.0001849800
  16       0.0920401200     -0.0000650000
  17       0.0368160500     -0.0000012900
 P 17 
   1  161308.0880000000     -0.0000183600
   2   24714.5235000000     -0.0000966800
   3    5979.8681500000     -0.0004674000
   4    1880.7724500000     -0.0020897800
   5     697.0986730000     -0.0083298900
   6     287.8652100000     -0.0281183102
   7     128.2459540000     -0.0762543804
   8      60.1299881000     -0.1506831208
   9      29.2171045000     -0.1838392710
  10      14.4495618000     -0.0017018000
  11       6.9484920700      0.3678248020
  12       3.3070278200      0.5062619728
  13       1.5587866100      0.2276136613
  14       0.6085795600      0.0155074201
  15       0.2431966500     -0.0051537100
  16       0.0920401200     -0.0010336300
  17       0.0368160500     -0.0002431800
 P 17 
   1  161308.0880000000      0.0000044600
   2   24714.5235000000      0.0000234100
   3    5979.8681500000      0.0001137300
   4    1880.7724500000      0.0005056800
   5     697.0986730000      0.0020337400
   6     287.8652100000      0.0068315500
   7     128.2459540000      0.0188191001
   8      60.1299881000      0.0370381701
   9      29.2171045000      0.0466047202
  10      14.4495618000     -0.0070412300
  11       6.9484920700     -0.1120091604
  12       3.3070278200     -0.1849859207
  13       1.5587866100     -0.0453981602
  14       0.6085795600      0.3739709914
  15       0.2431966500      0.5420597720
  16       0.0920401200      0.2369950509
  17       0.0368160500      0.0177365701
 P 17 
   1  161308.0880000000     -0.0000045600
   2   24714.5235000000     -0.0000239200
   3    5979.8681500000     -0.0001163200
   4    1880.7724500000     -0.0005167200
   5     697.0986730000     -0.0020807200
   6     287.8652100000     -0.0069821800
   7     128.2459540000     -0.0192796699
   8      60.1299881000     -0.0378537498
   9      29.2171045000     -0.0478743198
  10      14.4495618000      0.0078042700
  11       6.9484920700      0.1206883294
  12       3.3070278200      0.1909982590
  13       1.5587866100      0.0738579796
  14       0.6085795600     -0.7826839760
  15       0.2431966500     -0.1671050392
  16       0.0920401200      0.8086100259
  17       0.0368160500      0.2575917487
 P 17 
   1  161308.0880000000      0.0000062200
   2   24714.5235000000      0.0000310200
   3    5979.8681500000      0.0001660200
   4    1880.7724500000      0.0006443600
   5     697.0986730000      0.0030363800
   6     287.8652100000      0.0085497700
   7     128.2459540000      0.0289298500
   8      60.1299881000      0.0430834300
   9      29.2171045000      0.0855349200
  10      14.4495618000     -0.0574861300
  11       6.9484920700     -0.0872380500
  12       3.3070278200     -0.4458982598
  13       1.5587866100      0.2240751299
  14       0.6085795600      1.3721639393
  15       0.2431966500     -1.6777254592
  16       0.0920401200      0.2214395899
  17       0.0368160500      0.7051184097
 D 11 
   1     560.7329300000      0.0006886500
   2     238.7342180000      0.0024046700
   3     104.7731420000      0.0143312900
   4      45.0684265000      0.0543835202
   5      20.6137781000      0.1530429805
   6       9.4444506200      0.3055084809
   7       4.2525200500      0.3856767212
   8       1.8726199600      0.2921934009
   9       0.7460375500      0.0871480503
  10       0.2984150200     -0.0002002800
  11       0.1193660100      0.0013416900
 D 11 
   1     560.7329300000     -0.0001906900
   2     238.7342180000     -0.0007286600
   3     104.7731420000     -0.0040211100
   4      45.0684265000     -0.0160472300
   5      20.6137781000     -0.0435688800
   6       9.4444506200     -0.0934133200
   7       4.2525200500     -0.1086985200
   8       1.8726199600     -0.0967902300
   9       0.7460375500      0.3726812900
  10       0.2984150200      0.6242231999
  11       0.1193660100      0.1581131100
 D 11 
   1     560.7329300000      0.0002343500
   2     238.7342180000      0.0006652200
   3     104.7731420000      0.0047156400
   4      45.0684265000      0.0160842801
   5      20.6137781000      0.0499927603
   6       9.4444506200      0.1021558405
   7       4.2525200500      0.1496339108
   8       1.8726199600      0.1414792707
   9       0.7460375500     -1.0654159156
  10       0.2984150200      0.3504739018
  11       0.1193660100      0.6806671436
 F 4 
   1       1.4173100000      0.0929854699
   2       0.5669240000      0.6816956996
   3       0.2267690000      0.3458639498
   4       0.0907070000      0.0220614100
 F 4 
   1       1.4173100000     -0.3369599393
   2       0.5669240000     -0.6902486486
   3       0.2267690000      1.0343099779
   4       0.0907070000      0.0735447899
 G 2 
   1       0.7086550000      0.7264560869
   2       0.2834620000      0.3874358383
  end;

------------------------------------------------------------------------------
                             ORCA STARTUP CALCULATIONS
------------------------------------------------------------------------------
------------------------------------------------------------------------------
                   ___                                                        
                  /   \      - P O W E R E D   B Y -                         
                 /     \                                                     
                 |  |  |   _    _      __       _____    __    __             
                 |  |  |  | |  | |    /  \     |  _  \  |  |  /  |          
                  \  \/   | |  | |   /    \    | | | |  |  | /  /          
                 / \  \   | |__| |  /  /\  \   | |_| |  |  |/  /          
                |  |  |   |  __  | /  /__\  \  |    /   |      \           
                |  |  |   | |  | | |   __   |  |    \   |  |\   \          
                \     /   | |  | | |  |  |  |  | |\  \  |  | \   \       
                 \___/    |_|  |_| |__|  |__|  |_| \__\ |__|  \__/        
                                                                              
                      - O R C A' S   B I G   F R I E N D -                    
                                      &                                       
                       - I N T E G R A L  F E E D E R -                       
                                                                              
 v1 FN, 2020, v2 2021, v3 2022-2024                                           
------------------------------------------------------------------------------


----------------------
SHARK INTEGRAL PACKAGE
----------------------

Number of atoms                             ...      2
Number of basis functions                   ...     89
Number of shells                            ...     27
Maximum angular momentum                    ...      4
Integral batch strategy                     ... SHARK/LIBINT Hybrid
RI-J (if used) integral strategy            ... SPLIT-RIJ (Revised 2003 algorithm where possible)
Printlevel                                  ...      1
Contraction scheme used                     ... GENERAL contraction
Prescreening option                         ... SCHWARTZ
   Thresh                                   ... 1.000e-12
   Tcut                                     ... 1.000e-11
   Tpresel                                  ... 1.000e-11 
Coulomb Range Separation                    ... NOT USED
Exchange Range Separation                   ... NOT USED
Multipole approximations                    ... NOT USED
Finite Nucleus Model                        ... NOT USED
CABS basis                                  ... NOT available
Auxiliary Coulomb fitting basis             ... NOT available
Auxiliary J/K fitting basis                 ... NOT available
Auxiliary Correlation fitting basis         ... NOT available
Auxiliary 'external' fitting basis          ... NOT available

Checking pre-screening integrals            ... done (  0.0 sec) Dimension = 27
Calculate PGC pre-screening integrals       ... done (  0.1 sec) Dimension = 81
Calculate PGC overlap integrals             ... done (  0.1 sec) Dimension = 81
Check shell pair data                       ... done (  0.0 sec)
Shell pair information
Shell pair cut-off parameter TPreSel        ...   1.0e-11
Total number of shell pairs                 ...       378
Shell pairs after pre-screening             ...         0
Total number of primitive shell pairs       ...     61138
Primitive shell pairs kept                  ...      3632

Calculating one electron integrals          ... done (  0.0 sec)
Calculating Nuclear repulsion               ... done (  0.0 sec) ENN=     71.708194708794 Eh

Diagonalization of the overlap matrix:
Smallest eigenvalue                        ... 6.125e-04
Time for diagonalization                   ...    0.001 sec
Threshold for overlap eigenvalues          ... 1.000e-07
Number of eigenvalues below threshold      ... 0
Time for construction of square roots      ...    0.001 sec
Total time needed                          ...    0.004 sec

-------------------
DFT GRID GENERATION
-------------------

General Integration Accuracy     IntAcc      ... 4.388
Radial Grid Type                 RadialGrid  ... OptM3 with GC (2021)
Angular Grid (max. ang.)         AngularGrid ... 4 (Lebedev-302)
Angular grid pruning method      GridPruning ... 4 (adaptive)
Weight generation scheme         WeightScheme... mBecke (2022)
Basis function cutoff            BFCut       ... 1.0000e-10
Integration weight cutoff        WCut        ... 1.0000e-14
Partially contracted basis set               ... off
Rotationally invariant grid construction     ... off
Angular grids for H and He will be reduced by one unit
Core-polarized basis detected: some atoms will have their core
                               angular grid increased.

Total number of grid points                  ...    17461
Total number of batches                      ...      274
Average number of points per batch           ...       63
Average number of grid points per atom       ...     8730
Initializing property integral containers    ... done (  0.0 sec)

SHARK setup successfully completed in   1.5 seconds

Maximum memory used throughout the entire STARTUP-calculation: 165.2 MB
-------------------------------------------------------------------------------
                                 ORCA GUESS
                   Start orbitals & Density for SCF / CASSCF
-------------------------------------------------------------------------------

------------
SCF SETTINGS
------------
Hamiltonian:
 Density Functional     Method          .... DFT(GTOs)
 Exchange Functional    Exchange        .... B88
   X-Alpha parameter    XAlpha          ....  0.666667
   Becke's b parameter  XBeta           ....  0.004200
 Correlation Functional Correlation     .... LYP
 LDA part of GGA corr.  LDAOpt          .... VWN-3
 Gradients option       PostSCFGGA      .... off
 Hybrid DFT is turned on
   Fraction HF Exchange ScalHFX         ....  0.200000
   Scaling of DF-GGA-X  ScalDFX         ....  0.720000
   Scaling of DF-GGA-C  ScalDFC         ....  0.810000
   Scaling of DF-LDA-C  ScalLDAC        ....  1.000000
   Perturbative correction              ....  0.000000
   NL short-range parameter             ....  4.800000


General Settings:
 Integral files         IntName         .... nbr_cpks
 Hartree-Fock type      HFTyp           .... UHF
 Total Charge           Charge          ....    0
 Multiplicity           Mult            ....    3
 Number of Electrons    NEL             ....   42
 Basis Dimension        Dim             ....   89
 Nuclear Repulsion      ENuc            ....     71.7081947088 Eh

Convergence Acceleration:
 AO-DIIS                CNVDIIS         .... on
   Start iteration      DIISMaxIt       ....    12
   Startup error        DIISStart       ....  0.200000
   # of expansion vecs  DIISMaxEq       ....     5
   Bias factor          DIISBfac        ....   1.050
   Max. coefficient     DIISMaxC        ....  10.000
 MO-DIIS                CNVKDIIS        .... off
 Trust-Rad. Augm. Hess. CNVTRAH         .... auto
   Auto Start mean grad. ratio tolernc. ....  1.125000
   Auto Start start iteration           ....    50
   Auto Start num. interpolation iter.  ....    10
   Max. Number of Micro iterations      ....    24
   Max. Number of Macro iterations      .... Maxiter - #DIIS iter
   Number of Davidson start vectors     ....     2
   Converg. threshold    (grad. norm)   ....   5.000e-05
   Grad. Scal. Fac. for Micro threshold ....   0.100
   Minimum threshold for Micro iter.    ....   1.000e-02
   NR start threshold (gradient norm)   ....   1.000e-04
   Initial trust radius                 ....   0.400
   Minimum AH scaling param. (alpha)    ....   1.000
   Maximum AH scaling param. (alpha)    .... 1000.000
   Quad. conv. algorithm                .... NR
   White noise on init. David. guess    .... on
   Maximum white noise                  ....   0.010
   Pseudo random numbers                .... off
   Inactive MOs                         .... canonical
   Orbital update algorithm             .... Taylor
   Preconditioner                       .... Diag
   Full preconditioner red. dimension   ....   250
 SOSCF                  CNVSOSCF        .... on
   Start iteration      SOSCFMaxIt      ....   150
   Startup grad/error   SOSCFStart      ....  0.003300
   Hessian update       SOSCFHessUp     .... L-BFGS
 Level Shifting         CNVShift        .... on
   Level shift para.    LevelShift      ....    0.2500
   Turn off err/grad.   ShiftErr        ....    0.0010
 Zerner damping         CNVZerner       .... off
 Static damping         CNVDamp         .... on
   Fraction old density DampFac         ....    0.7000
   Max. Damping (<1)    DampMax         ....    0.9800
   Min. Damping (>=0)   DampMin         ....    0.0000
   Turn off err/grad.   DampErr         ....    0.1000

SCF Procedure:
 Maximum # iterations   MaxIter         ....   500
 SCF integral mode      SCFMode         .... Direct
   Integral package                     .... SHARK and LIBINT hybrid scheme
 Reset frequency        DirectResetFreq ....    20
 Integral Threshold     Thresh          ....  1.000e-12 Eh
 Primitive CutOff       TCut            ....  1.000e-11 Eh

Convergence Tolerance:
 Convergence Check Mode ConvCheckMode   .... Total+1el-Energy
 Convergence forced     ConvForced      .... 0
 Energy Change          TolE            ....  1.000e-08 Eh
 1-El. energy change                    ....  1.000e-05 Eh
 Orbital Gradient       TolG            ....  5.000e-05
 Orbital Rotation angle TolX            ....  5.000e-05
 DIIS Error             TolErr          ....  1.000e-06

------------------------------
INITIAL GUESS: MODEL POTENTIAL
------------------------------
Loading Hartree-Fock densities                     ... done
Calculating cut-offs                               ... done
Initializing the effective Hamiltonian             ... done
Setting up the integral package (SHARK)            ... done
Starting the Coulomb interaction                   ... done (   0.1 sec)
Making the grid                                    ... done (   0.0 sec)
Mapping shells                                     ... done
Starting the XC term evaluation                    ... done (   0.1 sec)
  promolecular density results
     # of electrons  =     42.000028119
     EX              =    -96.161963523
     EC              =     -1.938332263
     EX+EC           =    -98.100295786
Transforming the Hamiltonian                       ... done (   0.0 sec)
Diagonalizing the Hamiltonian                      ... done (   0.0 sec)
Back transforming the eigenvectors                 ... done (   0.0 sec)
Now organizing SCF variables                       ... done
                      ------------------
                      INITIAL GUESS DONE (   0.2 sec)
                      ------------------
----------------------
INITIAL GUESS ORBITALS
----------------------
                      0         1         2         3         4         5   
                 -471.89894 -60.53769 -55.66937 -55.66905 -55.66905 -14.15640
                   1.00000   1.00000   1.00000   1.00000   1.00000   1.00000
                  --------  --------  --------  --------  --------  --------
  0N   1s        -0.001572 -0.003746 -0.004985 -0.000000  0.000000 -1.000410
  0N   2s        -0.010077 -0.023920 -0.030692 -0.000000  0.000000 -0.001872
  0N   3s        -0.005490 -0.011977 -0.017822 -0.000000  0.000000  0.001695
  0N   4s         0.000149  0.001628 -0.002222 -0.000000  0.000000 -0.006606
  0N   1pz        0.000000  0.000000 -0.000000 -0.000414 -0.000670 -0.000000
  0N   1px       -0.007389 -0.019207 -0.017036 -0.000000  0.000000 -0.001901
  0N   1py        0.000000 -0.000000 -0.000000  0.000670 -0.000414 -0.000000
  0N   2pz        0.000000  0.000000 -0.000000 -0.000313 -0.000507 -0.000000
  0N   2px       -0.005523 -0.013874 -0.012930 -0.000000  0.000000 -0.002554
  0N   2py        0.000000 -0.000000 -0.000000  0.000507 -0.000313 -0.000000
  0N   3pz        0.000000 -0.000000  0.000000  0.000058  0.000094 -0.000000
  0N   3px        0.000500  0.001776  0.000291  0.000000 -0.000000 -0.001558
  0N   3py       -0.000000 -0.000000  0.000000 -0.000094  0.000058 -0.000000
  0N   1dz2       0.001642  0.004581  0.002451  0.000000 -0.000000  0.000110
  0N   1dxz       0.000000  0.000000 -0.000000 -0.000345 -0.000557 -0.000000
  0N   1dyz       0.000000  0.000000 -0.000000 -0.000000  0.000000  0.000000
  0N   1dx2y2    -0.002843 -0.007934 -0.004245 -0.000000  0.000000 -0.000190
  0N   1dxy       0.000000 -0.000000 -0.000000  0.000557 -0.000345 -0.000000
  0N   2dz2       0.001087  0.003003  0.001382  0.000000 -0.000000  0.000173
  0N   2dxz       0.000000  0.000000 -0.000000 -0.000281 -0.000454 -0.000000
  0N   2dyz      -0.000000  0.000000 -0.000000 -0.000000  0.000000  0.000000
  0N   2dx2y2    -0.001883 -0.005201 -0.002394 -0.000000  0.000000 -0.000300
  0N   2dxy       0.000000 -0.000000 -0.000000  0.000454 -0.000281 -0.000000
  0N   1f0       -0.000000 -0.000000  0.000000  0.000048  0.000077 -0.000000
  0N   1f+1       0.000543  0.001538  0.000236 -0.000000 -0.000000 -0.000117
  0N   1f-1      -0.000000  0.000000  0.000000 -0.000031  0.000019  0.000000
  0N   1f+2       0.000000  0.000000 -0.000000 -0.000062 -0.000099  0.000000
  0N   1f-2      -0.000000  0.000000 -0.000000 -0.000000  0.000000  0.000000
  0N   1f+3       0.000701  0.001986  0.000305 -0.000000 -0.000000 -0.000151
  0N   1f-3      -0.000000  0.000000  0.000000 -0.000122  0.000075  0.000000
  1Br  1s         0.999474  0.027156  0.000036  0.000000 -0.000000  0.000006
  1Br  2s         0.022959 -0.977550  0.000070 -0.000000 -0.000000 -0.000049
  1Br  3s        -0.016950  0.204875  0.014755  0.000000 -0.000000  0.003147
  1Br  4s         0.011316 -0.067619  0.019297  0.000000 -0.000000  0.003756
  1Br  5s         0.006752  0.017872  0.015827  0.000000 -0.000000  0.003601
  1Br  6s        -0.003546 -0.013647  0.002359  0.000000 -0.000000  0.001433
  1Br  1pz       -0.000000 -0.000000  0.000000  0.526074  0.850412  0.000000
  1Br  1px       -0.000097 -0.000418 -1.000186 -0.000000  0.000000 -0.000029
  1Br  1py       -0.000000  0.000000  0.000000 -0.850412  0.526074  0.000000
  1Br  2pz       -0.000000  0.000000 -0.000000 -0.003443 -0.005565  0.000000
  1Br  2px       -0.001205 -0.003082  0.003936  0.000000 -0.000000 -0.000316
  1Br  2py        0.000000 -0.000000 -0.000000  0.005565 -0.003443  0.000000
  1Br  3pz       -0.000000 -0.000000 -0.000000 -0.000430 -0.000695  0.000000
  1Br  3px       -0.008902 -0.021950 -0.022148 -0.000000  0.000000 -0.002729
  1Br  3py       -0.000000  0.000000 -0.000000  0.000695 -0.000430  0.000000
  1Br  4pz       -0.000000 -0.000000  0.000000  0.001047  0.001692  0.000000
  1Br  4px       -0.002231 -0.004029 -0.012562 -0.000000  0.000000 -0.002347
  1Br  4py       -0.000000  0.000000  0.000000 -0.001692  0.001047  0.000000
  1Br  5pz        0.000000  0.000000 -0.000000 -0.001283 -0.002073 -0.000000
  1Br  5px        0.002181  0.006216  0.006284  0.000000 -0.000000 -0.000563
  1Br  5py        0.000000 -0.000000 -0.000000  0.002073 -0.001283 -0.000000
  1Br  1dz2      -0.000337 -0.000894 -0.000702 -0.000000  0.000000  0.000011
  1Br  1dxz       0.000000  0.000000 -0.000000 -0.000037 -0.000060 -0.000000
  1Br  1dyz       0.000000 -0.000000 -0.000000  0.000000  0.000000  0.000000
  1Br  1dx2y2     0.000584  0.001549  0.001216  0.000000 -0.000000 -0.000018
  1Br  1dxy       0.000000 -0.000000 -0.000000  0.000060 -0.000037 -0.000000
  1Br  2dz2      -0.002436 -0.006256 -0.006146 -0.000000  0.000000  0.000014
  1Br  2dxz       0.000000  0.000000 -0.000000 -0.000352 -0.000569 -0.000000
  1Br  2dyz      -0.000000 -0.000000  0.000000  0.000000 -0.000000 -0.000000
  1Br  2dx2y2     0.004220  0.010835  0.010645  0.000000 -0.000000 -0.000025
  1Br  2dxy       0.000000 -0.000000 -0.000000  0.000569 -0.000352 -0.000000
  1Br  3dz2      -0.000767 -0.001639 -0.003364 -0.000000  0.000000 -0.000137
  1Br  3dxz       0.000000  0.000000 -0.000000 -0.000230 -0.000371 -0.000000
  1Br  3dyz       0.000000  0.000000  0.000000  0.000000 -0.000000 -0.000000
  1Br  3dx2y2     0.001329  0.002839  0.005827  0.000000 -0.000000  0.000238
  1Br  3dxy       0.000000 -0.000000 -0.000000  0.000371 -0.000230 -0.000000
  1Br  1f0        0.000000  0.000000 -0.000000 -0.000161 -0.000260 -0.000000
  1Br  1f+1       0.001328  0.003608  0.003026  0.000000 -0.000000 -0.000386
  1Br  1f-1       0.000000 -0.000000 -0.000000  0.000106 -0.000066 -0.000000
  1Br  1f+2      -0.000000 -0.000000  0.000000  0.000208  0.000336  0.000000
  1Br  1f-2      -0.000000  0.000000 -0.000000 -0.000000  0.000000  0.000000
  1Br  1f+3       0.001714  0.004658  0.003906  0.000000 -0.000000 -0.000499
  1Br  1f-3       0.000000 -0.000000 -0.000000  0.000412 -0.000255 -0.000000
  1Br  2f0        0.000000  0.000000 -0.000000 -0.000119 -0.000193 -0.000000
  1Br  2f+1       0.000387  0.000940  0.001660  0.000000 -0.000000 -0.000253
  1Br  2f-1       0.000000 -0.000000 -0.000000  0.000079 -0.000049 -0.000000
  1Br  2f+2      -0.000000 -0.000000  0.000000  0.000154  0.000249  0.000000
  1Br  2f-2       0.000000  0.000000 -0.000000 -0.000000  0.000000  0.000000
  1Br  2f+3       0.000499  0.001213  0.002144  0.000000 -0.000000 -0.000327
  1Br  2f-3       0.000000 -0.000000 -0.000000  0.000305 -0.000189 -0.000000
  1Br  1g0        0.000326  0.000945  0.000614  0.000000 -0.000000 -0.000104
  1Br  1g+1      -0.000000 -0.000000  0.000000  0.000116  0.000187  0.000000
  1Br  1g-1      -0.000000  0.000000 -0.000000 -0.000000  0.000000  0.000000
  1Br  1g+2      -0.000485 -0.001409 -0.000916 -0.000000  0.000000  0.000155
  1Br  1g-2      -0.000000  0.000000  0.000000 -0.000088  0.000054  0.000000
  1Br  1g+3      -0.000000 -0.000000  0.000000  0.000102  0.000165  0.000000
  1Br  1g-3       0.000000  0.000000  0.000000 -0.000000  0.000000  0.000000
  1Br  1g+4      -0.000642 -0.001865 -0.001212 -0.000000  0.000000  0.000205
  1Br  1g-4      -0.000000  0.000000  0.000000 -0.000233  0.000144  0.000000
                      6         7         8         9        10        11   
                  -8.18463  -6.27806  -6.27602  -6.27602  -2.49438  -2.49315
                   1.00000   1.00000   1.00000   1.00000   1.00000   1.00000
                  --------  --------  --------  --------  --------  --------
  0N   1s         0.007131  0.012044  0.000000 -0.000000  0.002926 -0.000000
  0N   2s         0.045788  0.073962  0.000000 -0.000000  0.024535 -0.000000
  0N   3s         0.023046  0.042700  0.000000 -0.000000  0.012240 -0.000000
  0N   4s        -0.002801  0.005435  0.000000 -0.000000  0.002114 -0.000000
  0N   1pz       -0.000000  0.000000  0.002110 -0.000000 -0.000000  0.000000
  0N   1px        0.038409  0.040549  0.000000 -0.000000  0.012856 -0.000000
  0N   1py        0.000000  0.000000  0.000000  0.002110 -0.000000 -0.003319
  0N   2pz       -0.000000  0.000000  0.001510 -0.000000 -0.000000  0.000000
  0N   2px        0.028643  0.031030  0.000000 -0.000000  0.006688 -0.000000
  0N   2py        0.000000  0.000000  0.000000  0.001510 -0.000000 -0.002530
  0N   3pz       -0.000000  0.000000 -0.000296  0.000000 -0.000000  0.000000
  0N   3px       -0.002444 -0.000117 -0.000000  0.000000  0.000056 -0.000000
  0N   3py        0.000000  0.000000 -0.000000 -0.000296 -0.000000 -0.000485
  0N   1dz2      -0.009331 -0.005418 -0.000000  0.000000 -0.001448  0.000000
  0N   1dxz      -0.000000  0.000000  0.001743 -0.000000 -0.000000  0.000000
  0N   1dyz      -0.000000  0.000000 -0.000000 -0.000000 -0.000000  0.000000
  0N   1dx2y2     0.016162  0.009384  0.000000 -0.000000  0.002509 -0.000000
  0N   1dxy       0.000000  0.000000  0.000000  0.001743 -0.000000 -0.001755
  0N   2dz2      -0.006173 -0.002994 -0.000000 -0.000000 -0.000507  0.000000
  0N   2dxz      -0.000000  0.000000  0.001347 -0.000000 -0.000000  0.000000
  0N   2dyz      -0.000000  0.000000 -0.000000 -0.000000 -0.000000  0.000000
  0N   2dx2y2     0.010692  0.005186  0.000000 -0.000000  0.000878 -0.000000
  0N   2dxy       0.000000  0.000000  0.000000  0.001347 -0.000000 -0.000972
  0N   1f0        0.000000 -0.000000 -0.000137  0.000000  0.000000 -0.000000
  0N   1f+1      -0.002903 -0.000267 -0.000000 -0.000000 -0.000144  0.000000
  0N   1f-1      -0.000000  0.000000 -0.000000 -0.000056  0.000000  0.000053
  0N   1f+2      -0.000000  0.000000  0.000176 -0.000000 -0.000000  0.000000
  0N   1f-2      -0.000000  0.000000 -0.000000 -0.000000 -0.000000  0.000000
  0N   1f+3      -0.003748 -0.000345 -0.000000  0.000000 -0.000186  0.000000
  0N   1f-3      -0.000000 -0.000000 -0.000000 -0.000216  0.000000  0.000206
  1Br  1s         0.017446 -0.000122  0.000000 -0.000000 -0.000024  0.000000
  1Br  2s         0.208640 -0.000100  0.000000 -0.000000 -0.000006 -0.000000
  1Br  3s         0.879348 -0.036567 -0.000000  0.000000 -0.009190  0.000000
  1Br  4s        -0.395965 -0.045183 -0.000000  0.000000 -0.010921  0.000000
  1Br  5s        -0.045002 -0.038457 -0.000000  0.000000 -0.011563  0.000000
  1Br  6s         0.036450 -0.006028 -0.000000  0.000000 -0.002426  0.000000
  1Br  1pz        0.000000  0.000000  0.006648 -0.000000  0.000000 -0.000000
  1Br  1px        0.000487 -0.006161  0.000000 -0.000000  0.000145 -0.000000
  1Br  1py       -0.000000 -0.000000  0.000000  0.006648  0.000000  0.000021
  1Br  2pz        0.000000  0.000000  0.999602 -0.000002  0.000000 -0.000000
  1Br  2px        0.004568 -0.993464  0.000000 -0.000000  0.002665 -0.000000
  1Br  2py        0.000000 -0.000000  0.000002  0.999602  0.000000  0.000725
  1Br  3pz        0.000000 -0.000000  0.016105 -0.000000  0.000000 -0.000000
  1Br  3px        0.042763  0.038287  0.000000 -0.000000  0.013746 -0.000000
  1Br  3py       -0.000000 -0.000000  0.000000  0.016105  0.000000  0.001244
  1Br  4pz        0.000000 -0.000000 -0.009842  0.000000  0.000000 -0.000000
  1Br  4px        0.007026  0.035852  0.000000 -0.000000  0.009583 -0.000000
  1Br  4py       -0.000000  0.000000 -0.000000 -0.009842  0.000000  0.001731
  1Br  5pz       -0.000000  0.000000  0.010164 -0.000000 -0.000000  0.000000
  1Br  5px       -0.012759 -0.019125 -0.000000  0.000000 -0.001829  0.000000
  1Br  5py       -0.000000 -0.000000  0.000000  0.010164 -0.000000 -0.000122
  1Br  1dz2       0.001628  0.001186  0.000000  0.000000 -0.499463 -0.000000
  1Br  1dxz      -0.000000  0.000000 -0.000388  0.000000  0.000000  0.000000
  1Br  1dyz       0.000000 -0.000000 -0.000000  0.000000  0.000000 -0.000000
  1Br  1dx2y2    -0.002819 -0.002055 -0.000000  0.000000  0.865096 -0.000000
  1Br  1dxy       0.000000  0.000000 -0.000000 -0.000388  0.000000  0.999744
  1Br  2dz2       0.011897  0.014457  0.000000 -0.000000 -0.001477 -0.000000
  1Br  2dxz      -0.000000  0.000000  0.001638 -0.000000 -0.000000  0.000000
  1Br  2dyz       0.000000 -0.000000  0.000000  0.000000  0.000000 -0.000000
  1Br  2dx2y2    -0.020607 -0.025040 -0.000000  0.000000  0.002558  0.000000
  1Br  2dxy       0.000000  0.000000  0.000000  0.001638 -0.000000  0.008380
  1Br  3dz2       0.003026  0.008276  0.000000  0.000000  0.006035 -0.000000
  1Br  3dxz      -0.000000  0.000000  0.001208 -0.000000 -0.000000  0.000000
  1Br  3dyz      -0.000000 -0.000000  0.000000  0.000000  0.000000  0.000000
  1Br  3dx2y2    -0.005241 -0.014334 -0.000000  0.000000 -0.010453  0.000000
  1Br  3dxy       0.000000  0.000000  0.000000  0.001208 -0.000000 -0.008163
  1Br  1f0       -0.000000  0.000000  0.000729 -0.000000 -0.000000  0.000000
  1Br  1f+1      -0.006689 -0.006958 -0.000000 -0.000000 -0.001202  0.000000
  1Br  1f-1       0.000000  0.000000  0.000000  0.000298 -0.000000 -0.000139
  1Br  1f+2       0.000000 -0.000000 -0.000943  0.000000  0.000000 -0.000000
  1Br  1f-2      -0.000000  0.000000 -0.000000 -0.000000 -0.000000  0.000000
  1Br  1f+3      -0.008636 -0.008983 -0.000000  0.000000 -0.001552  0.000000
  1Br  1f-3       0.000000  0.000000  0.000000  0.001154 -0.000000 -0.000532
  1Br  2f0       -0.000000  0.000000  0.000661 -0.000000 -0.000000  0.000000
  1Br  2f+1      -0.001675 -0.004217 -0.000000 -0.000000 -0.001715  0.000000
  1Br  2f-1       0.000000  0.000000  0.000000  0.000268 -0.000000 -0.000385
  1Br  2f+2       0.000000 -0.000000 -0.000851  0.000000  0.000000 -0.000000
  1Br  2f-2      -0.000000 -0.000000 -0.000000 -0.000000 -0.000000  0.000000
  1Br  2f+3      -0.002163 -0.005445 -0.000000  0.000000 -0.002214  0.000000
  1Br  2f-3       0.000000  0.000000  0.000000  0.001043 -0.000000 -0.001514
  1Br  1g0       -0.001699 -0.001299 -0.000000 -0.000000 -0.000053  0.000000
  1Br  1g+1       0.000000 -0.000000 -0.000482  0.000000  0.000000 -0.000000
  1Br  1g-1      -0.000000  0.000000 -0.000000 -0.000000 -0.000000  0.000000
  1Br  1g+2       0.002534  0.001936  0.000000  0.000000  0.000076 -0.000000
  1Br  1g-2      -0.000000 -0.000000 -0.000000 -0.000228  0.000000  0.000021
  1Br  1g+3       0.000000 -0.000000 -0.000426  0.000000  0.000000 -0.000000
  1Br  1g-3      -0.000000  0.000000 -0.000000 -0.000000 -0.000000  0.000000
  1Br  1g+4       0.003351  0.002561  0.000000 -0.000000  0.000102 -0.000000
  1Br  1g-4      -0.000000 -0.000000 -0.000000 -0.000602  0.000000  0.000052
                     12        13        14        15        16        17   
                  -2.49315  -2.49174  -2.49167  -0.81025  -0.61764  -0.37373
                   1.00000   1.00000   1.00000   1.00000   1.00000   1.00000
                  --------  --------  --------  --------  --------  --------
  0N   1s         0.000000 -0.000000 -0.000000  0.019273  0.014211  0.016307
  0N   2s         0.000000 -0.000000 -0.000000 -0.573460  0.743554  0.345553
  0N   3s         0.000000 -0.000000 -0.000000  0.046536  0.037656  0.034890
  0N   4s         0.000000 -0.000000 -0.000000  0.001056  0.009180  0.009784
  0N   1pz        0.003319  0.000000 -0.000000  0.000000  0.000000 -0.000000
  0N   1px        0.000000 -0.000000 -0.000000 -0.118487 -0.033024 -0.669792
  0N   1py       -0.000000  0.000000 -0.000000 -0.000000  0.000000  0.000000
  0N   2pz        0.002530  0.000000 -0.000000  0.000000  0.000000 -0.000000
  0N   2px        0.000000 -0.000000 -0.000000  0.040800  0.034014 -0.010831
  0N   2py       -0.000000  0.000000 -0.000000 -0.000000  0.000000 -0.000000
  0N   3pz        0.000485  0.000000 -0.000000 -0.000000  0.000000 -0.000000
  0N   3px        0.000000 -0.000000 -0.000000  0.000598 -0.000174 -0.012699
  0N   3py       -0.000000  0.000000 -0.000000 -0.000000  0.000000 -0.000000
  0N   1dz2      -0.000000  0.000000 -0.000279  0.002845 -0.005902  0.013036
  0N   1dxz       0.001755  0.000000 -0.000000  0.000000  0.000000 -0.000000
  0N   1dyz      -0.000000 -0.000325 -0.000000  0.000000  0.000000 -0.000000
  0N   1dx2y2     0.000000 -0.000000 -0.000161 -0.004928  0.010223 -0.022579
  0N   1dxy      -0.000000  0.000000 -0.000000 -0.000000  0.000000  0.000000
  0N   2dz2      -0.000000  0.000000 -0.000219 -0.002586 -0.004602  0.002753
  0N   2dxz       0.000972  0.000000 -0.000000  0.000000  0.000000 -0.000000
  0N   2dyz      -0.000000 -0.000255 -0.000000  0.000000  0.000000 -0.000000
  0N   2dx2y2     0.000000 -0.000000 -0.000126  0.004479  0.007970 -0.004768
  0N   2dxy      -0.000000  0.000000 -0.000000 -0.000000  0.000000  0.000000
  0N   1f0       -0.000130 -0.000000  0.000000 -0.000000 -0.000000  0.000000
  0N   1f+1      -0.000000  0.000000 -0.000095  0.000925 -0.001989  0.003292
  0N   1f-1       0.000000 -0.000000  0.000000  0.000000  0.000000 -0.000000
  0N   1f+2       0.000168  0.000000 -0.000000  0.000000  0.000000 -0.000000
  0N   1f-2      -0.000000 -0.000121 -0.000000  0.000000  0.000000 -0.000000
  0N   1f+3      -0.000000  0.000000  0.000074  0.001194 -0.002568  0.004250
  0N   1f-3       0.000000 -0.000000  0.000000 -0.000000 -0.000000  0.000000
  1Br  1s        -0.000000  0.000000  0.000000 -0.003017 -0.003868  0.000814
  1Br  2s         0.000000 -0.000000  0.000000  0.005669  0.006519 -0.001493
  1Br  3s        -0.000000  0.000000  0.000000 -0.216988 -0.340032  0.116408
  1Br  4s        -0.000000  0.000000  0.000000 -0.574433 -0.768610  0.201834
  1Br  5s        -0.000000  0.000000  0.000000 -0.007640 -0.042542  0.055432
  1Br  6s        -0.000000  0.000000  0.000000  0.017175  0.014707  0.006167
  1Br  1pz       -0.000021 -0.000000  0.000000 -0.000000 -0.000000  0.000000
  1Br  1px        0.000000 -0.000000  0.000000 -0.000391  0.000905 -0.000375
  1Br  1py        0.000000 -0.000000  0.000000  0.000000  0.000000  0.000000
  1Br  2pz       -0.000725 -0.000000  0.000000 -0.000000 -0.000000  0.000000
  1Br  2px        0.000000 -0.000000  0.000000 -0.015038  0.019975 -0.028885
  1Br  2py        0.000000 -0.000000  0.000000  0.000000 -0.000000 -0.000000
  1Br  3pz       -0.001244 -0.000000  0.000000 -0.000000 -0.000000  0.000000
  1Br  3px        0.000000 -0.000000 -0.000000  0.170076 -0.108564  0.564298
  1Br  3py        0.000000 -0.000000  0.000000  0.000000 -0.000000  0.000000
  1Br  4pz       -0.001731 -0.000000  0.000000 -0.000000 -0.000000  0.000000
  1Br  4px        0.000000 -0.000000 -0.000000 -0.020333  0.035844 -0.059431
  1Br  4py        0.000000 -0.000000  0.000000  0.000000 -0.000000  0.000000
  1Br  5pz        0.000122  0.000000  0.000000 -0.000000  0.000000 -0.000000
  1Br  5px       -0.000000  0.000000 -0.000000 -0.004896 -0.009409  0.007330
  1Br  5py       -0.000000  0.000000  0.000000  0.000000 -0.000000  0.000000
  1Br  1dz2       0.000000  0.000000 -0.865961 -0.009290  0.007448 -0.007942
  1Br  1dxz      -0.999744  0.000000 -0.000000  0.000000  0.000000 -0.000000
  1Br  1dyz      -0.000000 -0.999926 -0.000000 -0.000000  0.000000  0.000000
  1Br  1dx2y2    -0.000000  0.000000 -0.499963  0.016091 -0.012900  0.013756
  1Br  1dxy       0.000000 -0.000000 -0.000000  0.000000 -0.000000 -0.000000
  1Br  2dz2       0.000000 -0.000000 -0.008417  0.026520 -0.002534  0.012912
  1Br  2dxz      -0.008380  0.000000 -0.000000  0.000000  0.000000 -0.000000
  1Br  2dyz       0.000000 -0.009714 -0.000000 -0.000000 -0.000000  0.000000
  1Br  2dx2y2    -0.000000  0.000000 -0.004859 -0.045935  0.004390 -0.022363
  1Br  2dxy      -0.000000  0.000000 -0.000000 -0.000000  0.000000 -0.000000
  1Br  3dz2       0.000000 -0.000000  0.005601  0.001179  0.004809 -0.005436
  1Br  3dxz       0.008163  0.000000 -0.000000  0.000000  0.000000 -0.000000
  1Br  3dyz       0.000000  0.006466  0.000000  0.000000 -0.000000  0.000000
  1Br  3dx2y2    -0.000000  0.000000  0.003234 -0.002041 -0.008330  0.009415
  1Br  3dxy      -0.000000  0.000000  0.000000 -0.000000  0.000000  0.000000
  1Br  1f0        0.000335  0.000000 -0.000000  0.000000  0.000000 -0.000000
  1Br  1f+1      -0.000000  0.000000  0.000122 -0.012353 -0.000665 -0.005331
  1Br  1f-1      -0.000000  0.000000 -0.000000 -0.000000  0.000000  0.000000
  1Br  1f+2      -0.000436 -0.000000  0.000000 -0.000000 -0.000000  0.000000
  1Br  1f-2      -0.000000  0.000158 -0.000000  0.000000  0.000000 -0.000000
  1Br  1f+3      -0.000000  0.000000 -0.000095 -0.015948 -0.000859 -0.006883
  1Br  1f-3      -0.000000  0.000000 -0.000000 -0.000000  0.000000 -0.000000
  1Br  2f0        0.000961  0.000000 -0.000000  0.000000  0.000000 -0.000000
  1Br  2f+1      -0.000000  0.000000 -0.000241 -0.000850 -0.001966  0.002254
  1Br  2f-1      -0.000000  0.000000 -0.000000 -0.000000  0.000000  0.000000
  1Br  2f+2      -0.001231 -0.000000  0.000000 -0.000000 -0.000000  0.000000
  1Br  2f-2      -0.000000 -0.000320 -0.000000  0.000000  0.000000 -0.000000
  1Br  2f+3      -0.000000  0.000000  0.000186 -0.001097 -0.002538  0.002910
  1Br  2f-3      -0.000000  0.000000 -0.000000 -0.000000  0.000000 -0.000000
  1Br  1g0       -0.000000  0.000000  0.000048 -0.002452 -0.000364 -0.001258
  1Br  1g+1      -0.000041 -0.000000  0.000000 -0.000000 -0.000000  0.000000
  1Br  1g-1      -0.000000  0.000031 -0.000000  0.000000  0.000000 -0.000000
  1Br  1g+2       0.000000 -0.000000 -0.000043  0.003670  0.000558  0.001882
  1Br  1g-2       0.000000 -0.000000  0.000000  0.000000  0.000000 -0.000000
  1Br  1g+3      -0.000038 -0.000000  0.000000 -0.000000 -0.000000  0.000000
  1Br  1g-3      -0.000000  0.000083 -0.000000  0.000000  0.000000 -0.000000
  1Br  1g+4       0.000000 -0.000000  0.000056  0.004846  0.000730  0.002486
  1Br  1g-4       0.000000 -0.000000  0.000000 -0.000000 -0.000000  0.000000
                     18        19        20        21        22        23   
                  -0.33753  -0.33753  -0.22140  -0.22140  -0.07525   0.11717
                   1.00000   1.00000   1.00000   1.00000   0.00000   0.00000
                  --------  --------  --------  --------  --------  --------
  0N   1s        -0.000000 -0.000000 -0.000000 -0.000000  0.092498  0.000000
  0N   2s        -0.000000 -0.000000 -0.000000 -0.000000  0.784691  0.000000
  0N   3s        -0.000000 -0.000000 -0.000000 -0.000000  0.253940  0.000000
  0N   4s        -0.000000 -0.000000 -0.000000 -0.000000  0.040125  0.000000
  0N   1pz        0.588150 -0.000000 -0.000000  0.801103 -0.000000 -0.000000
  0N   1px       -0.000000 -0.000000 -0.000000 -0.000000  0.866380  0.000000
  0N   1py       -0.000000  0.588150 -0.801103  0.000000 -0.000000  0.130360
  0N   2pz        0.018865 -0.000000 -0.000000  0.070241 -0.000000 -0.000000
  0N   2px        0.000000 -0.000000 -0.000000 -0.000000  0.211418  0.000000
  0N   2py       -0.000000  0.018865 -0.070241  0.000000  0.000000  0.030779
  0N   3pz        0.011540 -0.000000 -0.000000  0.024719 -0.000000  0.000000
  0N   3px       -0.000000 -0.000000 -0.000000 -0.000000  0.032282  0.000000
  0N   3py       -0.000000  0.011540 -0.024719  0.000000  0.000000 -0.001836
  0N   1dz2      -0.000000  0.000000  0.000000  0.000000 -0.006825 -0.000000
  0N   1dxz       0.023163 -0.000000 -0.000000 -0.001136 -0.000000 -0.000000
  0N   1dyz      -0.000000 -0.000000 -0.000000  0.000000 -0.000000  0.000000
  0N   1dx2y2     0.000000 -0.000000 -0.000000  0.000000  0.011821  0.000000
  0N   1dxy      -0.000000  0.023163  0.001136  0.000000 -0.000000  0.042752
  0N   2dz2      -0.000000  0.000000  0.000000  0.000000 -0.005612 -0.000000
  0N   2dxz       0.005267 -0.000000 -0.000000 -0.000123 -0.000000 -0.000000
  0N   2dyz      -0.000000 -0.000000 -0.000000  0.000000 -0.000000  0.000000
  0N   2dx2y2     0.000000 -0.000000 -0.000000  0.000000  0.009720  0.000000
  0N   2dxy      -0.000000  0.005267  0.000123  0.000000 -0.000000  0.022794
  0N   1f0       -0.002923 -0.000000  0.000000 -0.000745  0.000000  0.000000
  0N   1f+1      -0.000000 -0.000000 -0.000000  0.000000 -0.003079  0.000000
  0N   1f-1      -0.000000 -0.001199  0.000308  0.000000 -0.000000 -0.000220
  0N   1f+2       0.003780 -0.000000 -0.000000  0.000967 -0.000000  0.000000
  0N   1f-2      -0.000000 -0.000000 -0.000000  0.000000 -0.000000  0.000000
  0N   1f+3       0.000000  0.000000  0.000000 -0.000000 -0.003974 -0.000000
  0N   1f-3       0.000000 -0.004626  0.001182 -0.000000  0.000000 -0.000858
  1Br  1s         0.000000  0.000000  0.000000  0.000000 -0.001825 -0.000000
  1Br  2s        -0.000000 -0.000000 -0.000000 -0.000000  0.004078  0.000000
  1Br  3s         0.000000  0.000000  0.000000  0.000000 -0.371263 -0.000000
  1Br  4s         0.000000  0.000000  0.000000  0.000000 -0.553294 -0.000000
  1Br  5s         0.000000  0.000000  0.000000  0.000000 -0.214689 -0.000000
  1Br  6s        -0.000000  0.000000  0.000000 -0.000000 -0.029227 -0.000000
  1Br  1pz        0.000494  0.000000  0.000000 -0.001532  0.000000 -0.000000
  1Br  1px        0.000000 -0.000000 -0.000000 -0.000000  0.005477  0.000000
  1Br  1py        0.000000  0.000494  0.001532 -0.000000  0.000000  0.000387
  1Br  2pz       -0.019368  0.000000  0.000000  0.003422  0.000000  0.000000
  1Br  2px       -0.000000 -0.000000 -0.000000 -0.000000  0.048787  0.000000
  1Br  2py        0.000000 -0.019368 -0.003422 -0.000000 -0.000000 -0.007687
  1Br  3pz        0.694437  0.000000  0.000000 -0.747734  0.000000  0.000000
  1Br  3px       -0.000000 -0.000000 -0.000000 -0.000000  1.163154  0.000000
  1Br  3py       -0.000000  0.694437  0.747734 -0.000000  0.000000 -0.053149
  1Br  4pz       -0.020812  0.000000  0.000000 -0.029130  0.000000  0.000000
  1Br  4px       -0.000000 -0.000000 -0.000000 -0.000000  0.364564  0.000000
  1Br  4py        0.000000 -0.020812  0.029130 -0.000000 -0.000000 -0.943694
  1Br  5pz        0.002448 -0.000000 -0.000000 -0.006249 -0.000000  0.000000
  1Br  5px       -0.000000  0.000000  0.000000 -0.000000  0.045184  0.000000
  1Br  5py       -0.000000  0.002448  0.006249  0.000000 -0.000000 -0.368111
  1Br  1dz2      -0.000000 -0.000000 -0.000000 -0.000000  0.021173  0.000000
  1Br  1dxz       0.010620 -0.000000 -0.000000  0.012508 -0.000000 -0.000000
  1Br  1dyz       0.000000  0.000000  0.000000 -0.000000 -0.000000 -0.000000
  1Br  1dx2y2     0.000000  0.000000  0.000000  0.000000 -0.036673 -0.000000
  1Br  1dxy      -0.000000  0.010620 -0.012508  0.000000  0.000000  0.005452
  1Br  2dz2       0.000000 -0.000000 -0.000000 -0.000000 -0.053997  0.000000
  1Br  2dxz      -0.044993 -0.000000 -0.000000 -0.060979 -0.000000  0.000000
  1Br  2dyz       0.000000  0.000000  0.000000 -0.000000  0.000000 -0.000000
  1Br  2dx2y2     0.000000  0.000000  0.000000  0.000000  0.093525 -0.000000
  1Br  2dxy      -0.000000 -0.044993  0.060979  0.000000 -0.000000 -0.072071
  1Br  3dz2      -0.000000 -0.000000 -0.000000 -0.000000  0.013153  0.000000
  1Br  3dxz      -0.001312 -0.000000 -0.000000 -0.005861 -0.000000  0.000000
  1Br  3dyz       0.000000  0.000000  0.000000 -0.000000  0.000000 -0.000000
  1Br  3dx2y2     0.000000  0.000000  0.000000 -0.000000 -0.022782 -0.000000
  1Br  3dxy      -0.000000 -0.001312  0.005861  0.000000 -0.000000 -0.012646
  1Br  1f0       -0.008625 -0.000000 -0.000000 -0.007324 -0.000000  0.000000
  1Br  1f+1      -0.000000  0.000000  0.000000  0.000000 -0.006214 -0.000000
  1Br  1f-1      -0.000000 -0.003500  0.003011  0.000000  0.000000  0.001759
  1Br  1f+2       0.011108  0.000000  0.000000  0.009482  0.000000 -0.000000
  1Br  1f-2      -0.000000 -0.000000 -0.000000  0.000000 -0.000000  0.000000
  1Br  1f+3       0.000000  0.000000  0.000000 -0.000000 -0.008022 -0.000000
  1Br  1f-3      -0.000000 -0.013621  0.011596  0.000000 -0.000000  0.007216
  1Br  2f0        0.000664 -0.000000 -0.000000  0.001664 -0.000000 -0.000000
  1Br  2f+1      -0.000000 -0.000000 -0.000000  0.000000 -0.015948 -0.000000
  1Br  2f-1      -0.000000  0.000305 -0.000650  0.000000  0.000000  0.003512
  1Br  2f+2      -0.000901  0.000000  0.000000 -0.002111  0.000000  0.000000
  1Br  2f-2      -0.000000 -0.000000 -0.000000  0.000000 -0.000000  0.000000
  1Br  2f+3       0.000000  0.000000  0.000000 -0.000000 -0.020589 -0.000000
  1Br  2f-3      -0.000000  0.001077 -0.002608  0.000000 -0.000000  0.014151
  1Br  1g0       -0.000000 -0.000000 -0.000000  0.000000 -0.000968 -0.000000
  1Br  1g+1       0.003301  0.000000  0.000000  0.001820  0.000000 -0.000000
  1Br  1g-1      -0.000000 -0.000000 -0.000000  0.000000 -0.000000  0.000000
  1Br  1g+2       0.000000  0.000000 -0.000000 -0.000000  0.001476  0.000000
  1Br  1g-2       0.000000  0.001541 -0.000875 -0.000000 -0.000000 -0.001136
  1Br  1g+3       0.002895  0.000000  0.000000  0.001623  0.000000 -0.000000
  1Br  1g-3      -0.000000 -0.000000 -0.000000  0.000000 -0.000000  0.000000
  1Br  1g+4      -0.000000 -0.000000 -0.000000  0.000000  0.001934  0.000000
  1Br  1g-4       0.000000  0.004111 -0.002276 -0.000000  0.000000 -0.002990
                     24        25        26        27        28        29   
                   0.11717   0.12035   0.14712   0.23320   0.23322   0.27520
                   0.00000   0.00000   0.00000   0.00000   0.00000   0.00000
                  --------  --------  --------  --------  --------  --------
  0N   1s         0.000000 -0.208305  0.100353  0.000000 -0.000000  0.000000
  0N   2s         0.000000 -1.275330  0.615663  0.000000 -0.000000  0.000000
  0N   3s         0.000000 -0.836809  0.081628  0.000000 -0.000000  0.000000
  0N   4s         0.000000 -0.140493 -0.046294  0.000000 -0.000000  0.000000
  0N   1pz       -0.130360  0.000000 -0.000000  0.000000  0.000000 -0.263847
  0N   1px        0.000000 -0.255857 -0.076895  0.000000 -0.000000  0.000000
  0N   1py       -0.000000  0.000000 -0.000000  0.000000  0.000000  0.127318
  0N   2pz       -0.030779  0.000000 -0.000000  0.000000  0.000000  0.257324
  0N   2px        0.000000 -0.456646  0.185339  0.000000 -0.000000  0.000000
  0N   2py       -0.000000 -0.000000 -0.000000  0.000000  0.000000 -0.124171
  0N   3pz        0.001836  0.000000 -0.000000  0.000000  0.000000  0.078218
  0N   3px        0.000000 -0.027536  0.015962  0.000000 -0.000000 -0.000000
  0N   3py        0.000000 -0.000000 -0.000000  0.000000  0.000000 -0.037744
  0N   1dz2      -0.000000  0.065642 -0.051829  0.000000 -0.070752 -0.000000
  0N   1dxz      -0.042752  0.000000 -0.000000  0.000000  0.000000  0.080961
  0N   1dyz      -0.000000  0.000000 -0.000000 -0.081678 -0.000000  0.000000
  0N   1dx2y2     0.000000 -0.113695  0.089770  0.000000 -0.040848  0.000000
  0N   1dxy      -0.000000  0.000000 -0.000000  0.000000  0.000000 -0.039068
  0N   2dz2      -0.000000  0.031396 -0.022691  0.000000 -0.038307 -0.000000
  0N   2dxz      -0.022794  0.000000 -0.000000  0.000000  0.000000  0.037420
  0N   2dyz      -0.000000  0.000000 -0.000000 -0.044219 -0.000000  0.000000
  0N   2dx2y2     0.000000 -0.054379  0.039302  0.000000 -0.022117  0.000000
  0N   2dxy      -0.000000  0.000000 -0.000000  0.000000  0.000000 -0.018057
  0N   1f0        0.000544 -0.000000  0.000000 -0.000000 -0.000000  0.001807
  0N   1f+1      -0.000000  0.008169  0.002254  0.000000 -0.002259 -0.000000
  0N   1f-1      -0.000000  0.000000  0.000000 -0.000000 -0.000000 -0.000359
  0N   1f+2      -0.000700  0.000000 -0.000000  0.000000  0.000000 -0.002342
  0N   1f-2      -0.000000  0.000000 -0.000000 -0.002845 -0.000000  0.000000
  0N   1f+3       0.000000  0.010547  0.002910 -0.000000  0.001750  0.000000
  0N   1f-3       0.000000  0.000000  0.000000 -0.000000 -0.000000 -0.001381
  1Br  1s        -0.000000  0.001582  0.000168 -0.000000  0.000000 -0.000000
  1Br  2s         0.000000 -0.005927 -0.003908  0.000000 -0.000000  0.000000
  1Br  3s        -0.000000  0.521351 -0.154545 -0.000000  0.000000 -0.000000
  1Br  4s        -0.000000  0.679676 -0.191200 -0.000000  0.000000 -0.000000
  1Br  5s        -0.000000  0.229184 -0.945803 -0.000000  0.000000 -0.000000
  1Br  6s        -0.000000 -0.020808 -0.284361 -0.000000  0.000000 -0.000000
  1Br  1pz       -0.000387 -0.000000  0.000000 -0.000000 -0.000000 -0.000593
  1Br  1px        0.000000 -0.006410  0.001887  0.000000 -0.000000  0.000000
  1Br  1py       -0.000000  0.000000  0.000000 -0.000000 -0.000000  0.000286
  1Br  2pz        0.007687 -0.000000  0.000000 -0.000000 -0.000000 -0.007362
  1Br  2px        0.000000 -0.093231  0.029459  0.000000 -0.000000  0.000000
  1Br  2py        0.000000 -0.000000  0.000000 -0.000000 -0.000000  0.003552
  1Br  3pz        0.053149 -0.000000  0.000000 -0.000000 -0.000000 -0.060784
  1Br  3px        0.000000 -0.752707  0.271642  0.000000 -0.000000  0.000000
  1Br  3py        0.000000 -0.000000  0.000000 -0.000000 -0.000000  0.029331
  1Br  4pz        0.943694  0.000000  0.000000 -0.000000 -0.000000  0.007010
  1Br  4px        0.000000 -1.305444  0.548432  0.000000 -0.000000 -0.000000
  1Br  4py        0.000000 -0.000000 -0.000000 -0.000000 -0.000000 -0.003383
  1Br  5pz        0.368111  0.000000 -0.000000  0.000000  0.000000  0.031167
  1Br  5px        0.000000 -0.275141  0.128346 -0.000000  0.000000 -0.000000
  1Br  5py        0.000000 -0.000000 -0.000000  0.000000  0.000000 -0.015040
  1Br  1dz2       0.000000 -0.019197  0.008955 -0.000000  0.006651  0.000000
  1Br  1dxz      -0.005452  0.000000  0.000000  0.000000  0.000000  0.010855
  1Br  1dyz       0.000000  0.000000 -0.000000  0.007677  0.000000  0.000000
  1Br  1dx2y2    -0.000000  0.033251 -0.015510 -0.000000  0.003840 -0.000000
  1Br  1dxy      -0.000000 -0.000000  0.000000  0.000000  0.000000 -0.005238
  1Br  2dz2       0.000000 -0.266378 -0.009270  0.000000 -0.787358  0.000000
  1Br  2dxz       0.072071  0.000000 -0.000000  0.000000  0.000000 -0.717061
  1Br  2dyz       0.000000 -0.000000  0.000000 -0.909163 -0.000000 -0.000000
  1Br  2dx2y2    -0.000000  0.461380  0.016056  0.000000 -0.454581 -0.000000
  1Br  2dxy       0.000000 -0.000000 -0.000000  0.000000  0.000000  0.346015
  1Br  3dz2       0.000000 -0.130129  0.006440  0.000000 -0.304253  0.000000
  1Br  3dxz       0.012646  0.000000 -0.000000  0.000000  0.000000 -0.250061
  1Br  3dyz       0.000000 -0.000000  0.000000 -0.351307 -0.000000 -0.000000
  1Br  3dx2y2    -0.000000  0.225391 -0.011155  0.000000 -0.175660 -0.000000
  1Br  3dxy       0.000000 -0.000000 -0.000000  0.000000  0.000000  0.120666
  1Br  1f0       -0.004627  0.000000 -0.000000  0.000000  0.000000  0.062549
  1Br  1f+1      -0.000000  0.103376 -0.029264 -0.000000  0.012675 -0.000000
  1Br  1f-1      -0.000000 -0.000000 -0.000000  0.000000  0.000000 -0.012376
  1Br  1f+2       0.005809 -0.000000  0.000000 -0.000000 -0.000000 -0.080892
  1Br  1f-2      -0.000000  0.000000 -0.000000  0.016215  0.000000  0.000000
  1Br  1f+3      -0.000000  0.133458 -0.037780  0.000000 -0.009818 -0.000000
  1Br  1f-3      -0.000000 -0.000000 -0.000000  0.000000  0.000000 -0.047765
  1Br  2f0       -0.009037  0.000000 -0.000000  0.000000  0.000000  0.049559
  1Br  2f+1      -0.000000  0.063024 -0.020454 -0.000000  0.006089 -0.000000
  1Br  2f-1      -0.000000 -0.000000 -0.000000  0.000000  0.000000 -0.009822
  1Br  2f+2       0.011443 -0.000000  0.000000 -0.000000 -0.000000 -0.064135
  1Br  2f-2      -0.000000  0.000000 -0.000000  0.007904  0.000000  0.000000
  1Br  2f+3      -0.000000  0.081364 -0.026405  0.000000 -0.004716 -0.000000
  1Br  2f-3      -0.000000 -0.000000 -0.000000  0.000000  0.000000 -0.037858
  1Br  1g0       -0.000000  0.012959 -0.005422 -0.000000  0.000983 -0.000000
  1Br  1g+1       0.002396 -0.000000  0.000000 -0.000000 -0.000000 -0.012112
  1Br  1g-1      -0.000000  0.000000 -0.000000  0.000619  0.000000  0.000000
  1Br  1g+2       0.000000 -0.019306  0.008082  0.000000 -0.000879  0.000000
  1Br  1g-2       0.000000  0.000000  0.000000 -0.000000 -0.000000  0.002758
  1Br  1g+3       0.002120 -0.000000  0.000000 -0.000000 -0.000000 -0.010689
  1Br  1g-3      -0.000000  0.000000 -0.000000  0.001637  0.000000  0.000000
  1Br  1g+4       0.000000 -0.025546  0.010692 -0.000000  0.001163  0.000000
  1Br  1g-4       0.000000  0.000000  0.000000 -0.000000 -0.000000  0.007291
                     30        31        32        33        34        35   
                   0.27520   0.29307   0.43586   0.43586   0.47468   0.60564
                   0.00000   0.00000   0.00000   0.00000   0.00000   0.00000
                  --------  --------  --------  --------  --------  --------
  0N   1s         0.000000 -0.154263 -0.000000  0.000000  0.173860 -0.000000
  0N   2s         0.000000 -1.072052 -0.000000  0.000000  1.039779 -0.000000
  0N   3s         0.000000 -0.083838 -0.000000  0.000000  0.913451 -0.000000
  0N   4s         0.000000  0.087106 -0.000000  0.000000  0.148366 -0.000000
  0N   1pz       -0.127318 -0.000000 -0.137967 -0.357733  0.000000  0.000000
  0N   1px        0.000000 -0.784811 -0.000000  0.000000  0.589213 -0.000000
  0N   1py       -0.263847 -0.000000 -0.357733  0.137967 -0.000000  0.000000
  0N   2pz        0.124171 -0.000000 -0.421916 -1.093985 -0.000000  0.000000
  0N   2px        0.000000 -1.153209 -0.000000  0.000000  1.131024 -0.000000
  0N   2py        0.257324 -0.000000 -1.093985  0.421916 -0.000000  0.000000
  0N   3pz        0.037744 -0.000000 -0.110056 -0.285363 -0.000000  0.000000
  0N   3px        0.000000 -0.221190 -0.000000  0.000000  0.174683 -0.000000
  0N   3py        0.078218 -0.000000 -0.285363  0.110056 -0.000000  0.000000
  0N   1dz2      -0.000000  0.057022  0.000000 -0.000000 -0.023253  0.380059
  0N   1dxz       0.039068 -0.000000  0.048895  0.126780  0.000000  0.000000
  0N   1dyz       0.000000 -0.000000 -0.000000 -0.000000  0.000000 -0.000000
  0N   1dx2y2     0.000000 -0.098764 -0.000000  0.000000  0.040276  0.219427
  0N   1dxy       0.080961  0.000000  0.126780 -0.048895 -0.000000  0.000000
  0N   2dz2      -0.000000  0.042011  0.000000 -0.000000 -0.013528  0.203847
  0N   2dxz       0.018057 -0.000000  0.020166  0.052289  0.000000  0.000000
  0N   2dyz       0.000000 -0.000000 -0.000000 -0.000000  0.000000 -0.000000
  0N   2dx2y2     0.000000 -0.072766 -0.000000  0.000000  0.023431  0.117691
  0N   2dxy       0.037420  0.000000  0.052289 -0.020166 -0.000000  0.000000
  0N   1f0        0.000872  0.000000  0.004487  0.011636 -0.000000 -0.000000
  0N   1f+1       0.000000  0.017108 -0.000000 -0.000000 -0.018399 -0.003858
  0N   1f-1       0.000745 -0.000000  0.004738 -0.001827  0.000000 -0.000000
  0N   1f+2      -0.001130 -0.000000 -0.005787 -0.015006  0.000000  0.000000
  0N   1f-2       0.000000 -0.000000 -0.000000  0.000000 -0.000000  0.000000
  0N   1f+3      -0.000000  0.022087  0.000000 -0.000000 -0.023753  0.002988
  0N   1f-3       0.002862  0.000000  0.018388 -0.007092  0.000000 -0.000000
  1Br  1s        -0.000000  0.001467  0.000000 -0.000000 -0.001357  0.000000
  1Br  2s         0.000000 -0.007262 -0.000000  0.000000  0.007568 -0.000000
  1Br  3s        -0.000000  0.655468  0.000000 -0.000000 -0.773138  0.000000
  1Br  4s        -0.000000  0.812700  0.000000 -0.000000 -0.942681  0.000000
  1Br  5s        -0.000000  0.460139  0.000000 -0.000000 -0.705928  0.000000
  1Br  6s        -0.000000  0.045051  0.000000 -0.000000 -0.085551  0.000000
  1Br  1pz       -0.000286  0.000000  0.000762  0.001977 -0.000000 -0.000000
  1Br  1px        0.000000 -0.009643 -0.000000  0.000000  0.010051 -0.000000
  1Br  1py       -0.000593  0.000000  0.001977 -0.000762  0.000000 -0.000000
  1Br  2pz       -0.003552  0.000000  0.010669  0.027663 -0.000000 -0.000000
  1Br  2px        0.000000 -0.109443 -0.000000  0.000000  0.123771 -0.000000
  1Br  2py       -0.007362  0.000000  0.027663 -0.010669  0.000000 -0.000000
  1Br  3pz       -0.029331  0.000000  0.137873  0.357490 -0.000000 -0.000000
  1Br  3px        0.000000 -0.862762 -0.000000  0.000000  0.858217 -0.000000
  1Br  3py       -0.060784  0.000000  0.357490 -0.137873  0.000000 -0.000000
  1Br  4pz        0.003383  0.000000  0.191850  0.497446 -0.000000 -0.000000
  1Br  4px        0.000000 -0.012785 -0.000000  0.000000  0.338730 -0.000000
  1Br  4py        0.007010 -0.000000  0.497446 -0.191850  0.000000 -0.000000
  1Br  5pz        0.015040 -0.000000  0.037860  0.098168  0.000000  0.000000
  1Br  5px       -0.000000  0.168683  0.000000 -0.000000 -0.164556  0.000000
  1Br  5py        0.031167 -0.000000  0.098168 -0.037860  0.000000  0.000000
  1Br  1dz2       0.000000 -0.023399 -0.000000  0.000000  0.022219 -0.003160
  1Br  1dxz       0.005238 -0.000000 -0.006072 -0.015743  0.000000  0.000000
  1Br  1dyz      -0.000000  0.000000  0.000000 -0.000000 -0.000000  0.000000
  1Br  1dx2y2    -0.000000  0.040528  0.000000 -0.000000 -0.038484 -0.001824
  1Br  1dxy       0.010855 -0.000000 -0.015743  0.006072  0.000000  0.000000
  1Br  2dz2       0.000000 -0.389758 -0.000000  0.000000 -0.081452 -0.161339
[...]
 1 Br dxy             0.0       0.0       0.1       9.3       0.0
 1 Br f0              0.0       0.0       1.5       0.0       0.0
 1 Br f+1             0.0       2.4       0.0       0.0       0.3
 1 Br f-1             0.0       0.0       0.0       0.3       0.0
 1 Br f+2             0.0       0.0       2.5       0.0       0.0
 1 Br f-2             3.1       0.0       0.0       0.0       0.0
 1 Br f+3             0.0       4.0       0.0       0.0       0.5
 1 Br f-3             0.0       0.0       0.0       3.8       0.0
 1 Br g0              0.0       1.1       0.0       0.0       0.0
 1 Br g+1             0.0       0.0       2.2       0.0       0.0
 1 Br g-1             0.8       0.0       0.0       0.0       0.0
 1 Br g+2             0.0       2.4       0.0       0.0       0.0
 1 Br g-2             0.0       0.0       0.0       0.5       0.0
 1 Br g+3             0.0       0.0       1.7       0.0       0.0
 1 Br g-3             5.8       0.0       0.0       0.0       0.0
 1 Br g+4             0.0       4.1       0.0       0.0       0.0
 1 Br g-4             0.0       0.0       0.0       3.4       0.0


                      *****************************
                      * MAYER POPULATION ANALYSIS *
                      *****************************

  NA   - Mulliken gross atomic population
  ZA   - Total nuclear charge
  QA   - Mulliken gross atomic charge
  VA   - Mayer's total valence
  BVA  - Mayer's bonded valence
  FA   - Mayer's free valence

  ATOM       NA         ZA         QA         VA         BVA        FA
  0 N      7.0743     7.0000    -0.0743     2.9172     1.4755     1.4416
  1 Br    34.9257    35.0000     0.0743     1.5688     1.4755     0.0933

  Mayer bond orders larger than 0.100000
B(  0-N ,  1-Br) :   1.4755 

-------
TIMINGS
-------

Total SCF time: 0 days 0 hours 3 min 9 sec 

Total time                  ....     189.900 sec
Sum of individual times     ....     189.860 sec  (100.0%)

SCF preparation             ....       0.114 sec  (  0.1%)
Fock matrix formation       ....     189.402 sec  ( 99.7%)
  Startup                   ....       0.058 sec  (  0.0% of F)
  Coulomb+Exchange Fock     ....     186.235 sec  ( 98.3% of F)
  XC integration            ....       2.983 sec  (  1.6% of F)
    XC Preparation          ....       0.000 sec  (  0.0% of XC)
    Basis function eval.    ....       1.092 sec  ( 36.6% of XC)
    Density eval.           ....       0.409 sec  ( 13.7% of XC)
    XC-Functional eval.     ....       0.191 sec  (  6.4% of XC)
    XC-Potential eval.      ....       1.158 sec  ( 38.8% of XC)
Diagonalization             ....       0.000 sec  (  0.0%)
Density matrix formation    ....       0.091 sec  (  0.0%)
Total Energy calculation    ....       0.028 sec  (  0.0%)
Population analysis         ....       0.033 sec  (  0.0%)
Orbital Transformation      ....       0.016 sec  (  0.0%)
Orbital Orthonormalization  ....       0.000 sec  (  0.0%)
DIIS solution               ....       0.113 sec  (  0.1%)
  MO trafo                  ....       0.000 sec  (  0.0 % of DIIS)
  Orb grad                  ....       0.000 sec  (  0.0 % of DIIS)
  Energy W gradient         ....       0.000 sec  (  0.0 % of DIIS)
  DIIS error                ....       0.002 sec  (  1.3 % of DIIS)
  DIIS work                 ....       0.091 sec  ( 80.3 % of DIIS)
  Form Q                    ....       0.000 sec  (  0.0 % of DIIS)
  Form QpQm                 ....       0.000 sec  (  0.0 % of DIIS)
  Exp/Cayley                ....       0.000 sec  (  0.0 % of DIIS)
  Orb update                ....       0.000 sec  (  0.0 % of DIIS)
  Wake-sleep                ....       0.013 sec  ( 11.4 % of DIIS)
SOSCF solution              ....       0.063 sec  (  0.0%)
  MO trafo                  ....       0.027 sec  ( 42.9 % of SOSCF)
  Orb grad                  ....       0.005 sec  (  8.7 % of SOSCF)
  Rot update                ....       0.013 sec  ( 21.0 % of SOSCF)
  Step                      ....       0.017 sec  ( 27.3 % of SOSCF)
Finished LeanSCF after 189.9 sec

Maximum memory used throughout the entire LEANSCF-calculation: 219.4 MB

------------------------------------------------------------------------------
                         ORCA PROPERTY INTEGRAL CALCULATIONS
------------------------------------------------------------------------------

GBWName                                   ... nbr_cpks.gbw
Number of atoms                           ...      2
Number of basis functions                 ...     89
Max core memory                           ...   1024 MB

Dipole integrals                          ... YES
Quadrupole integrals                      ...  NO
Linear momentum integrals                 ...  NO
Angular momentum integrals                ... YES
Higher moments length integrals           ...  NO
Higher moments velocity integrals         ...  NO
Kinetic energy integrals                  ... YES
GIAO right hand sides                     ...  NO
GIAO dipole derivative integrals          ...  NO
SOC integrals                             ... YES
EPR diamagnetic integrals (GIAO)          ...  NO
EPR gauge integrals                       ... YES
Field gradient integrals                  ...  NO (   0 nuclei)
Spin-dipole/Fermi contact integrals       ...  NO (   0 nuclei)
Contact density integrals                 ...  NO (   0 nuclei)
Nucleus-orbit integrals                   ...  NO (   0 nuclei)
Geometric perturbations                   ...  NO (   2 nuclei)

Choice of electric origin   ... Center of mass
Position of electric origin ... (  2.9070,  0.0000,  0.0000) 
Choice of magnetic origin   ... Center of nuclear charge
Position of magnetic origin ... (  2.8472,  0.0000,  0.0000) 

Calculating integrals                     ... Electric Dipole (Length)     done (  0.0 sec)
Calculating integrals                     ... Kinetic Energy               done (  0.0 sec)
Calculating integrals                     ... Angular Momentum  (MagOri)   done (  0.0 sec)
Calculating integrals                     ... EPR-gauge integrals          done (  0.0 sec)
  g-Tensor DSO: Zeff (2-electron approx.) ... YES 
Calculating integrals                     ... Spin-Orbit Coupling
  Spin-orbit operator                     ... Spin-Orbit Mean-Field (SOMF)
      1-El-Flag                           ...  1 ON
      Coulomb-Flag                        ...  2 ON (Via COSJ)
      Exchange-Flag                       ...  3 ON (AMFI type)
      DFT-Correlation Flag                ...  0 OFF
      Max-Center                          ...  4   
      Relativistic Picture Change         ... OFF     
  Electron density on the grid            ... done (%5.1 lf sec) NEL=     0.065805000
  SOC Coulomb terms                       ... done (%5.1 lf sec)
  One-electron part                       ... done (  0.0 sec)
  Two-electron DoJ,X=0,1 MaxCenter=1      ... done ( 60.6 sec)
  SOC integrals done ( 68.8 sec)

Property integrals calculated in  68.9 sec

Maximum memory used throughout the entire PROPINT-calculation: 768.7 MB

-------------------------   --------------------
FINAL SINGLE POINT ENERGY     -2607.055755095842
-------------------------   --------------------

------------------------------------------------------------------------------
                            ORCA SCF RESPONSE CALCULATION
------------------------------------------------------------------------------

GBWName                                 ... nbr_cpks.gbw
Number of atoms                         ...      2
Number of basis functions               ...     89
Max core memory                         ...   1024 MB

Electric field perturbation             ...  NO
Quadrupolar field perturbation          ...  NO
Magnetic field perturbation (no GIAO)   ... YES
Magnetic field perturbation (with GIAO) ...  NO
Linear momentum (velocity) perturbation ...  NO
Spin-orbit coupling perturbation        ...  NO
Choice of electric origin               ... Center of mass
Position of electric origin             ...     2.907007     0.000000     0.000000
Choice of magnetic origin               ... Center of nuclear charge
Position of magnetic origin             ...     2.847187     0.000000     0.000000
Nuclear geometric perturbations         ...  NO (   6 perturbations)
Nucleus-orbit perturbations             ...  NO (   0 perturbations)
Spin-dipole/Fermi contact perturbations ...  NO (   0 perturbations)

Total number of real perturbations      ...      0
Total number of imaginary perturbations ...      3
Total number of triplet perturbations   ...      0
Total number of SOC perturbations       ...      0


                              ***************************
                              * IMAGINARY PERTURBATIONS *
                              ***************************



-------------------
SHARK CP-SCF DRIVER
-------------------

Dimension of the orbital basis          ...     89
Dimension of the CPSCF-problem          ...   2854
Number of operators                     ...      2
Max. number of iterations               ...    128
Convergence Tolerance                   ... 1.0e-03
Number of perturbations                 ...      3
Perturbation type                       ... IMAGINARY

----------------------------
POPLE LINEAR EQUATION SOLVER
----------------------------

  ITERATION   0:   ||err||_max =   8.3114e-01 (  13.6 sec   1/  3 done)
  ITERATION   1:   ||err||_max =   3.0739e-02 (  13.4 sec   1/  3 done)
  ITERATION   2:   ||err||_max =   2.3642e-03 (  13.4 sec   1/  3 done)
  ITERATION   3:   ||err||_max =   1.5355e-04 (  13.5 sec   3/  3 done)

CP-SCF equations solved in  53.9 sec
Response densities calculated in   0.0 sec

Maximum memory used throughout the entire SCFRESP-calculation: 220.4 MB

------------------------------------------------------------------------------
                              ORCA PROPERTY CALCULATIONS
------------------------------------------------------------------------------

GBWName                                 ... nbr_cpks.gbw
Number of atoms                         ...      2
Number of basis functions               ...     89
Max core memory                         ...   1024 MB

Electric properties:
Dipole moment                           ... YES
Quadrupole moment                       ...  NO
Static polarizability (Dipole/Dipole)   ...  NO
Static polarizability (Dipole/Quad.)    ...  NO
Static polarizability (Quad./Quad.)     ...  NO
Static polarizability (Velocity)        ...  NO

Atomic electric properties:
Dipole moment                           ...  NO
Quadrupole moment                       ...  NO
Static polarizability                   ...  NO

Choice of electric origin               ... Center of mass
Position of electric origin             ...     2.907007     0.000000     0.000000

General magnetic properties:
Magnetizability                         ...  NO

EPR properties:
g-Tensor (aka g-matrix)                 ... YES
Zero-Field splitting spin-orbit         ...  NO
Zero-field splitting spin-spin          ...  NO
Hyperfine couplings                     ...  NO (   0 nuclei)
Quadrupole couplings                    ...  NO (   0 nuclei)
Contact density                         ...  NO (   0 nuclei)

NMR properties:
Chemical shifts                         ...  NO (   0 nuclei)
Spin-rotation constants                 ...  NO (   0 nuclei)
Spin-spin couplings                     ...  NO (   0 nuclei,    0 pairs)

Choice of magnetic origin               ... Center of nuclear charge
Position of magnetic origin             ...     2.847187     0.000000     0.000000

Properties with geometric perturbations:
SCF Hessian                             ...  NO
IR spectrum                             ...  NO
VCD spectrum                            ...  NO
X-ray spectroscopy properties:
SCF XES/XAS/RIXS spectra                ...  NO


-------------
DIPOLE MOMENT
-------------

Method             : SCF
Type of density    : Electron Density
Multiplicity       :   3
Irrep              :   0
Energy             : -2607.0557550958424144 Eh
Relativity type    : 
Basis              : AO
                                X                 Y                 Z
Electronic contribution:      2.997868247       0.000000000      -0.000000001
Nuclear contribution   :     -2.512432822       0.000000000       0.000000000
                        -----------------------------------------
Total Dipole Moment    :      0.485435425       0.000000000      -0.000000001
                        -----------------------------------------
Magnitude (a.u.)       :      0.485435425
Magnitude (Debye)      :      1.233878793



--------------------
Rotational spectrum 
--------------------
 
Rotational constants in cm-1:             0.000000             0.432719             0.432719 
Rotational constants in MHz :             0.000000         12972.593522         12972.593522 

Dipole components along the rotational axes: 
x,y,z [a.u.] :     0.485435     0.000000    -0.000000 
x,y,z [Debye]:     1.233879     0.000000    -0.000000 

 

Dipole moment calculation done in   0.0 sec 

-------------------
ELECTRONIC G-MATRIX
-------------------

Method             : SCF
Type of density    : Spin Density
Type of derivative : Magnetic Field (no GIAOs) (Direction=X)
Multiplicity       :   3
Irrep              :   0
Relativity type    : 
Basis              : AO
The g-matrix: 
              2.0022539   -0.0000000    0.0000000
              0.0000000    2.0250108    0.0000000
              0.0000000    0.0000000    2.0250108
DSO contribution to g-matrix:
              0.0001774    0.0000000   -0.0000000
              0.0000000    0.0002621    0.0000000
             -0.0000000    0.0000000    0.0002621
PSO contribution to g-matrix:
              0.0000000   -0.0000000    0.0000000
              0.0000000    0.0226722    0.0000000
              0.0000000    0.0000000    0.0226722

Breakdown of the contributions
 gel          2.0023193    2.0023193    2.0023193
 gRMC        -0.0002427   -0.0002427   -0.0002427
 gDSO(1el)    0.0002382    0.0003276    0.0003276
 gDSO(2el)   -0.0000609   -0.0000655   -0.0000655
 gDSO(tot)    0.0001774    0.0002621    0.0002621
 gPSO(1el)    0.0000000    0.0252888    0.0252888
 gPSO(2el)   -0.0000000   -0.0026166   -0.0026166
 gPSO(tot)    0.0000000    0.0226722    0.0226722
             ----------   ----------   ----------
 g(tot)       2.0022539    2.0250108    2.0250108 iso=  2.0174252
 Delta-g     -0.0000653    0.0226916    0.0226916 iso=  0.0151059

 Orientation: 
  X           1.0000000    0.0000000   -0.0000000
  Y          -0.0000000   -0.1275188   -0.9918362
  Z          -0.0000000    0.9918362   -0.1275188

Notes:  (1) The g-matrix conforms to the "BgS" spin Hamiltonian convention. 
        (2) The principal values are square roots of the eigenvalues of g*gT.
        (3) Orientations are eigenvectors of g*gT written as column vectors.
        (4) Individual contributions are projections of the full matrices onto the eigenvectors of g*gT.
        (5) Tensor is right-handed.

-------------------------------
G-TENSOR ATOM AND BOND ANALYSIS
-------------------------------

 NOTE: We project onto the eigenvectors of the total g-matrix
       that means that contributions do not necessarily add up to the final total g-values
       However, the values should be close and indicate which atoms dominantly contribute

 NOTE: We ONLY analyze the PSO term here!

 N -  0 :    0.0000000    0.0012154 *   0.0012154 *  iso=  0.0008103 *
 Br-  1 :    0.0000000    0.0214035 *   0.0214035 *  iso=  0.0142690 *
           ------------- ------------- ------------- -----------------
 Total-1c    0.0000000     0.0226189     0.0226189         0.0150793
 Total-2c    0.0000000     0.0000533     0.0000533         0.0000355
 Total       0.0000000     0.0226722     0.0226722         0.0151148

EPR g-tensor done in   0.0 sec 

Maximum memory used throughout the entire PROP-calculation: 66.2 MB

--------------------------------
SUGGESTED CITATIONS FOR THIS RUN
--------------------------------

Below you find a list of papers that are relevant to this ORCA run
We neither can nor want to force you to cite these papers, but we appreciate if you do
You receive ORCA, which is the product of decades of hard work by many enthusiastic individuals, for free
The only thing we kindly ask in return is that you cite our papers,
We deeply appreciate it, if you show your appreciation for ORCA by not just citing the generic ORCA reference.

Please note that relegating all ORCA citations to the supporting information does *not* help us.
SI sections are not indexed - citations you put there will not count into any citation statistics
But we need these citations in order to attract the funding resources that allow us to do what we are doing

Therefore, if you are a happy ORCA user, please consider citing a few of the papers listed below in the main body of your paper

In addition to the list printed below, the program has created the file nbr_cpks.bibtex that contains the list in bibtex format
You can import this file easily into all common literature databanks and citation aid programs


List of essential papers. We consider these as the minimum necessary citations

  1. Neese,F.
     Software update: the ORCA program system, version 5.0
     WIRES Comput. Molec. Sci., 2022 12(1)e1606
     doi.org/10.1002/wcms.1606

List of papers to cite with high priority. The work reported in these papers was absolutely
necessary for this run to complete.
Our perspective: the developers of density functionals and basis sets usually get cited in chemistry papers
Good! But without the algorithms to do something with them, the functionals or basis sets would not do anything.
Hence, in our opinion, the algorithm design and method developments papers are equally worthy of getting cited

  1. Neese,F.
     Prediction of electron paramagnetic resonance g values using coupled perturbed Hartree-Fock and Kohn-Sham theory
     J. Chem. Phys., 2001 115(24)11080-11096
     doi.org/10.1063/1.1419058
  2. Neese,F.
     Efficient and accurate approximations to the molecular spin-orbit coupling operator and their use in molecular g-tensor calculations
     J. Chem. Phys., 2005 122(3)Art. No. 034107
     doi.org/10.1063/1.1829047
  3. Neese,F.
     The SHARK Integral Generation and Digestion System
     J. Comp. Chem., 2022  1-16
     doi.org/10.1002/jcc.26942

List of suggested additional citations. These are papers that are important in the 'surrounding' of 
of this run, or papers that preceded the highly important papers. If you like your results we are grateful for a citation.

  1. Neese,F.
     The ORCA program system
     WIRES Comput. Molec. Sci., 2012 2(1)73-78
     doi.org/10.1002/wcms.81
  2. Neese,F.
     Software update: the ORCA program system, version 4.0
     WIRES Comput. Molec. Sci., 2018 8(1)1-6
     doi.org/10.1002/wcms.1327
  3. Neese,F.; Wennmohs,F.; Becker,U.; Riplinger,C.
     The ORCA quantum chemistry program package
     J. Chem. Phys., 2020 152 Art. No. L224108
     doi.org/10.1063/5.0004608

List of optional additional citations

  1. Neese,F.
     Approximate second-order SCF convergence for spin unrestricted wavefunctions
     Chem. Phys. Lett., 2000 325(1-3)93-98
     doi.org/10.1016/s0009-2614(00)00662-x

Timings for individual modules:

Sum of individual times          ...      315.422 sec (=   5.257 min)
Startup calculation              ...        1.499 sec (=   0.025 min)   0.5 %
SCF iterations                   ...      190.348 sec (=   3.172 min)  60.3 %
Property integrals               ...       69.008 sec (=   1.150 min)  21.9 %
SCF Response                     ...       54.392 sec (=   0.907 min)  17.2 %
Property calculations            ...        0.176 sec (=   0.003 min)   0.1 %
                             ****ORCA TERMINATED NORMALLY****
TOTAL RUN TIME: 0 days 0 hours 5 minutes 15 seconds 578 msec
