
                                 *****************
                                 * O   R   C   A *
                                 *****************

                                            #,                                       
                                            ###                                      
                                            ####                                     
                                            #####                                    
                                            ######                                   
                                           ########,                                 
                                     ,,################,,,,,                         
                               ,,#################################,,                 
                          ,,##########################################,,             
                       ,#########################################, ''#####,          
                    ,#############################################,,   '####,        
                  ,##################################################,,,,####,       
                ,###########''''           ''''###############################       
              ,#####''   ,,,,##########,,,,          '''####'''          '####       
            ,##' ,,,,###########################,,,                        '##       
           ' ,,###''''                  '''############,,,                           
         ,,##''                                '''############,,,,        ,,,,,,###''
      ,#''                                            '''#######################'''  
     '                                                          ''''####''''         
             ,#######,   #######,   ,#######,      ##                                
            ,#'     '#,  ##    ##  ,#'     '#,    #''#        ,####,   ,####,        
            ##       ##  ##   ,#'  ##            #'  '#       #'       #'  '#        
            ##       ##  #######   ##           ,######,      #####,   #    #        
            '#,     ,#'  ##    ##  '#,     ,#' ,#      #,     #,   #   #,  ,#        
             '#######'   ##     ##  '#######'  #'      '#     '####' # '####'        



                #########################################################
                #                        -***-                          #
                #          Department of theory and spectroscopy        #
                #                                                       #
                #                      Frank Neese                      #
                #                                                       #
                #     Directorship, Architecture, Infrastructure        #
                #                    SHARK, DRIVERS                     #
                #        Core code/Algorithms in most modules           #
                #                                                       #
                #        Max Planck Institute fuer Kohlenforschung      #
                #                Kaiser Wilhelm Platz 1                 #
                #                 D-45470 Muelheim/Ruhr                 #
                #                      Germany                          #
                #                                                       #
                #                  All rights reserved                  #
                #                        -***-                          #
                #########################################################


                         Program Version 6.0.0  -   RELEASE  -


 With contributions from (in alphabetic order):
   Daniel Aravena         : Magnetic Suceptibility
   Michael Atanasov       : Ab Initio Ligand Field Theory (pilot matlab implementation)
   Alexander A. Auer      : GIAO ZORA, VPT2 properties, NMR spectrum
   Ute Becker             : All parallelization in ORCA, NUMFREQ, NUMCALC
   Giovanni Bistoni       : ED, misc. LED, open-shell LED, HFLD
   Martin Brehm           : Molecular dynamics
   Dmytro Bykov           : pre 5.0 version of the SCF Hessian
   Marcos Casanova-Páez   : Triplet and SCS-CIS(D). UHF-(DLPNO)-IP/EA/STEOM-CCSD. UHF-CVS-IP/STEOM-CCSD
   Vijay G. Chilkuri      : MRCI spin determinant printing, contributions to CSF-ICE
   Pauline Colinet        : FMM embedding
   Dipayan Datta          : RHF DLPNO-CCSD density
   Achintya Kumar Dutta   : EOM-CC, STEOM-CC
   Nicolas Foglia         : Exact transition moments, OPA infrastructure, MCD improvements
   Dmitry Ganyushin       : Spin-Orbit,Spin-Spin,Magnetic field MRCI
   Miquel Garcia          : C-PCM and meta-GGA Hessian, CCSD/C-PCM, Gaussian charge scheme
   Tiago L. C. Gouveia    : GS-ROHF, GS-ROCIS
   Yang Guo               : DLPNO-NEVPT2, F12-NEVPT2, CIM, IAO-localization
   Andreas Hansen         : Spin unrestricted coupled pair/coupled cluster methods
   Ingolf Harden          : AUTO-CI MPn and infrastructure 
   Benjamin Helmich-Paris : MC-RPA, TRAH-(SCF,CASSCF), AVAS, COSX integrals, SCF dyn. polar.
   Lee Huntington         : MR-EOM, pCC
   Robert Izsak           : Overlap fitted RIJCOSX, COSX-SCS-MP3, EOM
   Riya Kayal             : Wick's Theorem for AUTO-CI, AUTO-CI UHF-CCSDT
   Emily Kempfer          : AUTO-CI, RHF CISDT and CCSDT
   Christian Kollmar      : KDIIS, OOCD, Brueckner-CCSD(T), CCSD density, CASPT2, CASPT2-K, improved NEVPT2
   Axel Koslowski         : Symmetry handling
   Simone Kossmann        : Meta GGA functionals, TD-DFT gradient, OOMP2, (MP2 Hessian; deprecated post 5.0)
   Lucas Lang             : DCDCAS
   Marvin Lechner         : AUTO-CI (C++ implementation), FIC-MRCC
   Spencer Leger          : CASSCF response
   Dagmar Lenk            : GEPOL surface, SMD, ORCA-2-JSON
   Dimitrios Liakos       : Extrapolation schemes; Compound Job, initial MDCI parallelization
   Dimitrios Manganas     : Further ROCIS development; embedding schemes. LFT, Crystal Embedding
   Dimitrios Pantazis     : SARC Basis sets
   Anastasios Papadopoulos: AUTO-CI, single reference methods and gradients
   Taras Petrenko         : pre 6.0 DFT Hessian and TD-DFT gradient, (ASA, deprecated), ECA, 1-Electron XAS/XES, NRVS
   Peter Pinski           : DLPNO-MP2, DLPNO-MP2 Gradient
   Christoph Reimann      : Effective Core Potentials
   Marius Retegan         : Local ZFS, SOC
   Christoph Riplinger    : Optimizer, TS searches, QM/MM, DLPNO-CCSD(T), (RO)-DLPNO pert. Triples
   Michael Roemelt        : Original ROCIS implementation
   Masaaki Saitow         : Open-shell DLPNO-CCSD energy and density
   Barbara Sandhoefer     : DKH picture change effects
   Kantharuban Sivalingam : CASSCF convergence/infrastructure, NEVPT2 and variants, FIC-MRCI
   Bernardo de Souza      : ESD, SOC TD-DFT
   Georgi Stoychev        : AutoAux, RI-MP2 NMR, DLPNO-MP2 response, X2C
   Van Anh Tran           : RI-MP2 g-tensors
   Willem Van den Heuvel  : Paramagnetic NMR
   Zikuan Wang            : NOTCH, Electric field optimization 
   Frank Wennmohs         : Technical directorship and infrastructure
   Hang Xu                : AUTO-CI-Response properties 


 We gratefully acknowledge several colleagues who have allowed us to
 interface, adapt or use parts of their codes:
   Stefan Grimme, W. Hujo, H. Kruse, P. Pracht,  : VdW corrections, initial TS optimization,
                  C. Bannwarth, S. Ehlert,         DFT functionals, gCP, sTDA/sTD-DF
                  L. Wittmann, M. Mueller
   Ed Valeev, F. Pavosevic, A. Kumar             : LibInt (2-el integral package), F12 methods
   Garnet Chan, S. Sharma, J. Yang, R. Olivares  : DMRG
   Ulf Ekstrom                                   : XCFun DFT Library
   Mihaly Kallay                                 : mrcc  (arbitrary order and MRCC methods)
   Frank Weinhold                                : gennbo (NPA and NBO analysis)
   Simon Mueller                                 : openCOSMO-RS
   Christopher J. Cramer and Donald G. Truhlar   : smd solvation model
   Lars Goerigk                                  : TD-DFT with DH, B97 family of functionals
   V. Asgeirsson, H. Jonsson                     : NEB implementation
   FAccTs GmbH                                   : IRC, NEB, NEB-TS, DLPNO-Multilevel, CI-OPT
                                                   MM, QMMM, 2- and 3-layer-ONIOM, Crystal-QMMM,
                                                   LR-CPCM, SF, NACMEs, symmetry and pop. for TD-DFT,
                                                   nearIR, NL-DFT gradient (VV10), updates on ESD,
                                                   ML-optimized integration grids, MBIS, APM,
                                                   GOAT, DOCKER, SOLVATOR, interface openCOSMO-RS
   S Lehtola, MJT Oliveira, MAL Marques          : LibXC Library
   Liviu Ungur et al                             : ANISO software


 Your calculation uses the libint2 library for the computation of 2-el integrals
 For citations please refer to: http://libint.valeyev.net

 Your ORCA version has been built with support for libXC version: 6.2.2
 For citations please refer to: https://libxc.gitlab.io

 This ORCA versions uses:
   CBLAS   interface :  Fast vector & matrix operations
   LAPACKE interface :  Fast linear algebra routines
   SCALAPACK package :  Parallel linear algebra routines
   Shared memory     :  Shared parallel matrices
   BLAS/LAPACK       :  OpenBLAS 0.3.27  USE64BITINT DYNAMIC_ARCH NO_AFFINITY SkylakeX SINGLE_THREADED
        Core in use  :  SkylakeX
   Copyright (c) 2011-2014, The OpenBLAS Project




************************************
The Z-Matrix will be read from file: ni.gzmt
************************************


BuildBasisSet found the ANOflag in the standard basis to be TRUE and will set the global ANO flag
================================================================================

----- Orbital basis set information -----
Your calculation utilizes the basis: ANO-RCC-TZP
   H, He:       P.-O. Widmark, P.-A. Malmqvist, and B. O. Roos, Theor. Chim. Acta 77, 291 (1990).
   s block:     B. O. Roos, V. Veryazov and P.-O. Widmark, Theor. Chem. Acc. 111, 345 (2004).
   p block:     B. O. Roos, R. Lindh, P.-A. Malmqvist, V. Veryazov, and P.-O. Widmark, J. Phys. Chem. A 108, 2851 (2004).
   d block:     B. O. Roos, R. Lindh, P.-A. Malmqvist, V. Veryazov, and P.-O. Widmark, J. Phys. Chem. A 109, 6575 (2005).
   actinides:   B. O. Roos, R. Lindh, P.-A. Malmqvist, V. Veryazov, and P.-O. Widmark, Chem. Phys. Letters 409, 295 (2005).
   lanthanides: B. O. Roos, R. Lindh, P.-A. Malmqvist, V. Veryazov, P.-O. Widmark and A. C. Borin, J. Phys. Chem. A 112, 11431 (2008).

================================================================================
                                        WARNINGS
                       Please study these warnings very carefully!
================================================================================


WARNING: your system is open-shell and RHF/RKS was chosen
  ===> : WILL SWITCH to UHF/UKS


================================================================================
                                       INPUT FILE
================================================================================
NAME = ni_cpks.inp
|  1> !B3LYP ANO-RCC-TZP SOMF(1X) LARGEPRINT PrintMOs
|  2> 
|  3> %METHOD
|  4>  Functional B3LYP_G
|  5>  RI false
|  6> END
|  7> 
|  8> %SCF
|  9>  MaxIter 500			# Max. no. of SCF iterations
| 10>  Thresh 1e-12			# Threshold for neglecting integrals
| 11>  TolE 1e-8			# Energy convergence threshold
| 12> END
| 13> 
| 14> %EPRNMR 			# Control of EPR and NMR calculations
| 15>  gtensor 1			# Calculate the g-tensor 
| 16>  ori CenterOfNucCharge		# origin for magnetic properties: CenterOfElCharge, CenterOfNucCharge
| 17>  printlevel 4			# detailed information
| 18> END
| 19> 
| 20> * gzmtfile 0 3 ni.gzmt 	# Coordinates
| 21> 
| 22> 
| 23>                          ****END OF INPUT****
================================================================================

                       ****************************
                       * Single Point Calculation *
                       ****************************

---------------------------------
CARTESIAN COORDINATES (ANGSTROEM)
---------------------------------
  I      0.000000    0.000000    0.000000
  N      2.007000    0.000000    0.000000

----------------------------
CARTESIAN COORDINATES (A.U.)
----------------------------
  NO LB      ZA    FRAG     MASS         X           Y           Z
   0 I    53.0000    0   126.900    0.000000    0.000000    0.000000
   1 N     7.0000    0    14.007    3.792680    0.000000    0.000000

--------------------------------
INTERNAL COORDINATES (ANGSTROEM)
--------------------------------
 I      0   0   0     0.000000000000     0.00000000     0.00000000
 N      1   0   0     2.007000000000     0.00000000     0.00000000

---------------------------
INTERNAL COORDINATES (A.U.)
---------------------------
 I      0   0   0     0.000000000000     0.00000000     0.00000000
 N      1   0   0     3.792680350780     0.00000000     0.00000000

---------------------
BASIS SET INFORMATION
---------------------
There are 2 groups of distinct atoms

 Group   1 Type I   : 154s114p52d10f3g contracted to 7s6p4d2f1g pattern {22222222222222/191919191919/13131313/55/3}
 Group   2 Type N   : 56s27p8d3f contracted to 4s3p2d1f pattern {14141414/999/44/3}

Atom   0I    basis set group =>   1
Atom   1N    basis set group =>   2

-------------------------
BASIS SET IN INPUT FORMAT
-------------------------

 # Basis set for element : N 
 NewGTO N 
 S 14 
   1   74761.7150000000      0.0001182600
   2   11123.6540000000      0.0005172900
   3    2512.6857000000      0.0022666600
   4     703.7772900000      0.0091452900
   5     225.4787900000      0.0323934299
   6      79.6158100000      0.0977079297
   7      30.2372830000      0.2317036792
   8      12.2636220000      0.3768898887
   9       5.2650860000      0.3177420689
  10       2.3334710000      0.0821130897
  11       0.9018560000      0.0033120900
  12       0.3583360000      0.0037208200
  13       0.1410930000      0.0031654200
  14       0.0493830000      0.0004595800
 S 14 
   1   74761.7150000000     -0.0000270700
   2   11123.6540000000     -0.0001183700
   3    2512.6857000000     -0.0005203800
   4     703.7772900000     -0.0021029300
   5     225.4787900000     -0.0075682000
   6      79.6158100000     -0.0234676701
   7      30.2372830000     -0.0604290102
   8      12.2636220000     -0.1170549104
   9       5.2650860000     -0.1555321506
  10       2.3334710000     -0.0246893501
  11       0.9018560000      0.3625054514
  12       0.3583360000      0.5550845021
  13       0.1410930000      0.2148376908
  14       0.0493830000      0.0089838500
 S 14 
   1   74761.7150000000      0.0000187600
   2   11123.6540000000      0.0000811800
   3    2512.6857000000      0.0003659000
   4     703.7772900000      0.0014430400
   5     225.4787900000      0.0055318400
   6      79.6158100000      0.0172435900
   7      30.2372830000      0.0527954800
   8      12.2636220000      0.1152881299
   9       5.2650860000      0.2352593898
  10       2.3334710000     -0.0489638700
  11       0.9018560000     -1.0232177390
  12       0.3583360000     -0.1481586599
  13       0.1410930000      1.0215575390
  14       0.0493830000      0.1724018298
 S 14 
   1   74761.7150000000     -0.0000494400
   2   11123.6540000000     -0.0002073400
   3    2512.6857000000     -0.0009867600
   4     703.7772900000     -0.0035422800
   5     225.4787900000     -0.0148099700
   6      79.6158100000     -0.0379156800
   7      30.2372830000     -0.1257055399
   8      12.2636220000     -0.1456239499
   9       5.2650860000     -0.4732570997
  10       2.3334710000      0.8968759094
  11       0.9018560000      1.2597585391
  12       0.3583360000     -2.5330381983
  13       0.1410930000      0.8923431494
  14       0.0493830000      0.5447725696
 P 9 
   1     126.6665700000      0.0012336300
   2      29.8373890000      0.0094934100
   3       9.3940380000      0.0429396200
   4       3.4051040000      0.1362925399
   5       1.3500000000      0.2921362499
   6       0.5576960000      0.3887887598
   7       0.2324490000      0.2946801399
   8       0.0942640000      0.0801287600
   9       0.0329920000      0.0005405200
 P 9 
   1     126.6665700000     -0.0014662300
   2      29.8373890000     -0.0118214800
   3       9.3940380000     -0.0498312599
   4       3.4051040000     -0.1730904198
   5       1.3500000000     -0.4732370794
   6       0.5576960000     -0.2055113197
   7       0.2324490000      0.5910379792
   8       0.0942640000      0.4511796794
   9       0.0329920000      0.0136747200
 P 9 
   1     126.6665700000      0.0026572100
   2      29.8373890000      0.0278559300
   3       9.3940380000      0.1017958800
   4       3.4051040000      0.5038263901
   5       1.3500000000      0.5153194801
   6       0.5576960000     -1.2501138501
   7       0.2324490000      0.0250603500
   8       0.0942640000      0.7076929701
   9       0.0329920000      0.0139397500
 D 4 
   1       2.7500000000      0.1473016505
   2       0.9625000000      0.5502182618
   3       0.3368750000      0.4452560414
   4       0.1179060000      0.0494286902
 D 4 
   1       2.7500000000     -0.4440843393
   2       0.9625000000     -0.5913847991
   3       0.3368750000      0.8651336187
   4       0.1179060000      0.1664048297
 F 3 
   1       1.8000000000      0.3320900824
   2       0.7200000000      0.5699105542
   3       0.2880000000      0.2868327321
  end;

 # Basis set for element : I 
 NewGTO I 
 S 22 
   1  34197758.5000000000      0.0002981100
   2  5458858.9699999997      0.0007515000
   3  1186554.7500000000      0.0020404800
   4  307137.4120000000      0.0049468200
   5   90681.6879000000      0.0116683799
   6   29665.7961000000      0.0269684898
   7   10541.5450000000      0.0619916295
   8    4001.1641700000      0.1379899688
   9    1599.0311100000      0.2709658777
  10     667.0029370000      0.3777626267
  11     288.2344770000      0.2512025078
  12     123.6147960000      0.0371608797
  13      56.5829476000     -0.0001461500
  14      26.3774552000     -0.0002986400
  15      12.4441726000      0.0003242700
  16       5.8929720600     -0.0002818700
  17       2.6953325000      0.0001689700
  18       1.1771745200     -0.0000799900
  19       0.4587172900      0.0000349400
  20       0.1566734800     -0.0000172300
  21       0.0626693900      0.0000091000
  22       0.0250677500     -0.0000027400
 S 22 
   1  34197758.5000000000     -0.0001034400
   2  5458858.9699999997     -0.0002611200
   3  1186554.7500000000     -0.0007107000
   4  307137.4120000000     -0.0017309500
   5   90681.6879000000     -0.0041174200
   6   29665.7961000000     -0.0096573100
   7   10541.5450000000     -0.0228320101
   8    4001.1641700000     -0.0535904702
   9    1599.0311100000     -0.1177215204
  10     667.0029370000     -0.2052819907
  11     288.2344770000     -0.1743682906
  12     123.6147960000      0.2661800608
  13      56.5829476000      0.6532484621
  14      26.3774552000      0.2564987608
  15      12.4441726000      0.0109253900
  16       5.8929720600      0.0011054000
  17       2.6953325000     -0.0004679100
  18       1.1771745200      0.0000251000
  19       0.4587172900     -0.0000101700
  20       0.1566734800      0.0000063800
  21       0.0626693900     -0.0000020700
  22       0.0250677500      0.0000006100
 S 22 
   1  34197758.5000000000      0.0000462800
   2  5458858.9699999997      0.0001168500
   3  1186554.7500000000      0.0003181500
   4  307137.4120000000      0.0007754000
   5   90681.6879000000      0.0018466600
   6   29665.7961000000      0.0043411000
   7   10541.5450000000      0.0103043800
   8    4001.1641700000      0.0243881701
   9    1599.0311100000      0.0544873501
  10     667.0029370000      0.0986453702
  11     288.2344770000      0.0888526402
  12     123.6147960000     -0.1791834904
  13      56.5829476000     -0.6150315614
  14      26.3774552000     -0.2160503805
  15      12.4441726000      0.8521624720
  16       5.8929720600      0.4992498412
  17       2.6953325000      0.0102487800
  18       1.1771745200      0.0092371300
  19       0.4587172900     -0.0034850100
  20       0.1566734800      0.0016517600
  21       0.0626693900     -0.0008959600
  22       0.0250677500      0.0002697300
 S 22 
   1  34197758.5000000000     -0.0000208800
   2  5458858.9699999997     -0.0000527200
   3  1186554.7500000000     -0.0001435700
   4  307137.4120000000     -0.0003498500
   5   90681.6879000000     -0.0008339400
   6   29665.7961000000     -0.0019590500
   7   10541.5450000000     -0.0046630800
   8    4001.1641700000     -0.0110235000
   9    1599.0311100000     -0.0248232300
  10     667.0029370000     -0.0449930700
  11     288.2344770000     -0.0418113200
  12     123.6147960000      0.0898916500
  13      56.5829476000      0.3213228101
  14      26.3774552000      0.1387937900
  15      12.4441726000     -0.7678095302
  16       5.8929720600     -0.6418771701
  17       2.6953325000      0.9198370002
  18       1.1771745200      0.6335429901
  19       0.4587172900      0.0029980000
  20       0.1566734800      0.0097792700
  21       0.0626693900     -0.0051083600
  22       0.0250677500      0.0015844500
 S 22 
   1  34197758.5000000000      0.0000072300
   2  5458858.9699999997      0.0000182500
   3  1186554.7500000000      0.0000497000
   4  307137.4120000000      0.0001210700
   5   90681.6879000000      0.0002888400
   6   29665.7961000000      0.0006776000
   7   10541.5450000000      0.0016170900
   8    4001.1641700000      0.0038099700
   9    1599.0311100000      0.0086319200
  10     667.0029370000      0.0155382400
  11     288.2344770000      0.0147896400
  12     123.6147960000     -0.0323470000
  13      56.5829476000     -0.1129885101
  14      26.3774552000     -0.0559379901
  15      12.4441726000      0.3170159104
  16       5.8929720600      0.2549629903
  17       2.6953325000     -0.4855676406
  18       1.1771745200     -0.6640243408
  19       0.4587172900      0.6084538407
  20       0.1566734800      0.7895069809
  21       0.0626693900     -0.0076045700
  22       0.0250677500      0.0232675300
 S 22 
   1  34197758.5000000000     -0.0000100700
   2  5458858.9699999997     -0.0000254200
   3  1186554.7500000000     -0.0000692300
   4  307137.4120000000     -0.0001687200
   5   90681.6879000000     -0.0004020700
   6   29665.7961000000     -0.0009453200
   7   10541.5450000000     -0.0022480200
   8    4001.1641700000     -0.0053276700
   9    1599.0311100000     -0.0119755200
  10     667.0029370000     -0.0218675399
  11     288.2344770000     -0.0201617999
  12     123.6147960000      0.0441017899
  13      56.5829476000      0.1654199995
  14      26.3774552000      0.0635900898
  15      12.4441726000     -0.4418115687
  16       5.8929720600     -0.4740880086
  17       2.6953325000      1.2344589263
  18       1.1771745200      0.4499550287
  19       0.4587172900     -2.1571817836
  20       0.1566734800      0.9202313573
  21       0.0626693900      0.5681985583
  22       0.0250677500     -0.0042125300
 S 22 
   1  34197758.5000000000      0.0000153900
   2  5458858.9699999997      0.0000388700
   3  1186554.7500000000      0.0001057800
   4  307137.4120000000      0.0002581200
   5   90681.6879000000      0.0006137100
   6   29665.7961000000      0.0014493200
   7   10541.5450000000      0.0034222400
   8    4001.1641700000      0.0082042400
   9    1599.0311100000      0.0181588200
  10     667.0029370000      0.0340679901
  11     288.2344770000      0.0295620901
  12     123.6147960000     -0.0644576102
  13      56.5829476000     -0.2781349607
  14      26.3774552000     -0.0463162901
  15      12.4441726000      0.6790182017
  16       5.8929720600      0.9833535324
  17       2.6953325000     -3.7477895892
  18       1.1771745200      3.4152193284
  19       0.4587172900     -0.3923949410
  20       0.1566734800     -2.0796156051
  21       0.0626693900      1.9106865247
  22       0.0250677500     -0.1740392904
 P 19 
   1  1299065.8100000001      0.0000387400
   2  187865.2500000000      0.0001592900
   3   39958.5855000000      0.0006302500
   4   10832.1862000000      0.0024532300
   5    3536.3661200000      0.0092619200
   6    1325.4810100000      0.0325348199
   7     549.0325220000      0.0986299096
   8     244.4861360000      0.2335417890
   9     114.4643140000      0.3769455685
  10      55.4357363000      0.3273991487
  11      26.8008008000      0.1052163696
  12      13.2396634000      0.0042350000
  13       6.6223517300      0.0015432900
  14       3.0913372600     -0.0008018600
  15       1.4150859900      0.0002705700
  16       0.5350473800     -0.0001390700
  17       0.2227547500      0.0000722700
  18       0.0831393500     -0.0000309400
  19       0.0332557400      0.0000104100
 P 19 
   1  1299065.8100000001     -0.0000181800
   2  187865.2500000000     -0.0000748600
   3   39958.5855000000     -0.0002970200
   4   10832.1862000000     -0.0011601500
   5    3536.3661200000     -0.0044164400
   6    1325.4810100000     -0.0157228100
   7     549.0325220000     -0.0491523601
   8     244.4861360000     -0.1219056502
   9     114.4643140000     -0.2101170803
  10      55.4357363000     -0.1485237002
  11      26.8008008000      0.2372867503
  12      13.2396634000      0.5722750307
  13       6.6223517300      0.3076367004
  14       3.0913372600      0.0337104300
  15       1.4150859900      0.0002513900
  16       0.5350473800      0.0002346300
  17       0.2227547500     -0.0001236100
  18       0.0831393500      0.0000327900
  19       0.0332557400     -0.0000133200
 P 19 
   1  1299065.8100000001      0.0000079400
   2  187865.2500000000      0.0000326900
   3   39958.5855000000      0.0001299500
   4   10832.1862000000      0.0005067700
   5    3536.3661200000      0.0019388700
   6    1325.4810100000      0.0068914100
   7     549.0325220000      0.0217895002
   8     244.4861360000      0.0542109404
   9     114.4643140000      0.0958285007
  10      55.4357363000      0.0610151004
  11      26.8008008000     -0.1480381711
  12      13.2396634000     -0.4055073129
  13       6.6223517300     -0.1088832508
  14       3.0913372600      0.5890588842
  15       1.4150859900      0.5384484939
  16       0.5350473800      0.0719344605
  17       0.2227547500     -0.0066490800
  18       0.0831393500      0.0033695400
  19       0.0332557400     -0.0009381900
 P 19 
   1  1299065.8100000001     -0.0000023400
   2  187865.2500000000     -0.0000096100
   3   39958.5855000000     -0.0000382200
   4   10832.1862000000     -0.0001489800
   5    3536.3661200000     -0.0005705400
   6    1325.4810100000     -0.0020270600
   7     549.0325220000     -0.0064224800
   8     244.4861360000     -0.0159851699
   9     114.4643140000     -0.0283841399
  10      55.4357363000     -0.0177079399
  11      26.8008008000      0.0460670998
  12      13.2396634000      0.1298065395
  13       6.6223517300      0.0245994199
  14       3.0913372600     -0.2424552690
  15       1.4150859900     -0.2513044089
  16       0.5350473800      0.2517757189
  17       0.2227547500      0.6150447674
  18       0.0831393500      0.3117393387
  19       0.0332557400      0.0212821799
 P 19 
   1  1299065.8100000001      0.0000030100
   2  187865.2500000000      0.0000123900
   3   39958.5855000000      0.0000492800
   4   10832.1862000000      0.0001921400
   5    3536.3661200000      0.0007356800
   6    1325.4810100000      0.0026151700
   7     549.0325220000      0.0082831000
   8     244.4861360000      0.0206417100
   9     114.4643140000      0.0366715700
  10      55.4357363000      0.0228982400
  11      26.8008008000     -0.0606995000
  12      13.2396634000     -0.1705900401
  13       6.6223517300     -0.0432478400
  14       3.0913372600      0.4189188302
  15       1.4150859900      0.2414765201
  16       0.5350473800     -0.8342913704
  17       0.2227547500     -0.3022657801
  18       0.0831393500      0.7819771204
  19       0.0332557400      0.2933861401
 P 19 
   1  1299065.8100000001     -0.0000050800
   2  187865.2500000000     -0.0000210100
   3   39958.5855000000     -0.0000826800
   4   10832.1862000000     -0.0003284800
   5    3536.3661200000     -0.0012241400
   6    1325.4810100000     -0.0045037200
   7     549.0325220000     -0.0137060400
   8     244.4861360000     -0.0359334201
   9     114.4643140000     -0.0595518801
  10      55.4357363000     -0.0456398001
  11      26.8008008000      0.1261429702
  12      13.2396634000      0.2565273004
  13       6.6223517300      0.1716764303
  14       3.0913372600     -1.2285724019
  15       1.4150859900      0.5740132709
  16       0.5350473800      1.3335909820
  17       0.2227547500     -1.6440433425
  18       0.0831393500      0.2858352604
  19       0.0332557400      0.5943023409
 D 13 
   1    1599.0311100000      0.0008657800
   2     667.0029370000      0.0030163100
   3     288.2344770000      0.0176949499
   4     123.6147960000      0.0701921497
   5      56.5829476000      0.1988281091
   6      26.3774552000      0.3750225183
   7      12.4441726000      0.3910662983
   8       5.8929720600      0.1609709993
   9       2.6953325000      0.0159015999
  10       1.1771745200      0.0003587900
  11       0.4587172900     -0.0001413500
  12       0.1834869100      0.0000516700
  13       0.0733947600     -0.0000215100
 D 13 
   1    1599.0311100000     -0.0003572600
   2     667.0029370000     -0.0012417900
   3     288.2344770000     -0.0073614800
   4     123.6147960000     -0.0294488701
   5      56.5829476000     -0.0850254704
   6      26.3774552000     -0.1569085907
   7      12.4441726000     -0.1341257406
   8       5.8929720600      0.1591836407
   9       2.6953325000      0.4890747822
  10       1.1771745200      0.4259107619
  11       0.4587172900      0.1098466805
  12       0.1834869100     -0.0014795200
  13       0.0733947600      0.0024255700
 D 13 
   1    1599.0311100000      0.0001958700
   2     667.0029370000      0.0006680200
   3     288.2344770000      0.0040338500
   4     123.6147960000      0.0159991000
   5      56.5829476000      0.0469845900
   6      26.3774552000      0.0843416400
   7      12.4441726000      0.0687436500
   8       5.8929720600     -0.1212708300
   9       2.6953325000     -0.3309361501
  10       1.1771745200     -0.0696651600
  11       0.4587172900      0.5893033402
  12       0.1834869100      0.4702943502
  13       0.0733947600      0.0554400600
 D 13 
   1    1599.0311100000     -0.0004338700
   2     667.0029370000     -0.0013756700
   3     288.2344770000     -0.0089016900
   4     123.6147960000     -0.0340371800
   5      56.5829476000     -0.1054828200
   6      26.3774552000     -0.1699706900
   7      12.4441726000     -0.1160597700
   8       5.8929720600      0.3922671399
   9       2.6953325000      0.6305039499
  10       1.1771745200     -0.8737374299
  11       0.4587172900     -0.3693710399
  12       0.1834869100      0.7335422899
  13       0.0733947600      0.1216816600
 F 5 
   1       3.9452090000      0.4704676802
   2       1.5780830000      0.5404782703
   3       0.4459470000      0.2160406101
   4       0.1783790000     -0.0142601300
   5       0.0713515000      0.0179415400
 F 5 
   1       3.9452090000     -0.3461363893
   2       1.5780830000     -0.1560771197
   3       0.4459470000      0.7667557484
   4       0.1783790000      0.2825777894
   5       0.0713515000      0.0234544400
 G 3 
   1       1.9726030000      0.5745526603
   2       0.5574330000      0.5572260003
   3       0.2229730000      0.1522457101
  end;

------------------------------------------------------------------------------
                             ORCA STARTUP CALCULATIONS
------------------------------------------------------------------------------
------------------------------------------------------------------------------
                   ___                                                        
                  /   \      - P O W E R E D   B Y -                         
                 /     \                                                     
                 |  |  |   _    _      __       _____    __    __             
                 |  |  |  | |  | |    /  \     |  _  \  |  |  /  |          
                  \  \/   | |  | |   /    \    | | | |  |  | /  /          
                 / \  \   | |__| |  /  /\  \   | |_| |  |  |/  /          
                |  |  |   |  __  | /  /__\  \  |    /   |      \           
                |  |  |   | |  | | |   __   |  |    \   |  |\   \          
                \     /   | |  | | |  |  |  |  | |\  \  |  | \   \       
                 \___/    |_|  |_| |__|  |__|  |_| \__\ |__|  \__/        
                                                                              
                      - O R C A' S   B I G   F R I E N D -                    
                                      &                                       
                       - I N T E G R A L  F E E D E R -                       
                                                                              
 v1 FN, 2020, v2 2021, v3 2022-2024                                           
------------------------------------------------------------------------------


----------------------
SHARK INTEGRAL PACKAGE
----------------------

Number of atoms                             ...      2
Number of basis functions                   ...     98
Number of shells                            ...     30
Maximum angular momentum                    ...      4
Integral batch strategy                     ... SHARK/LIBINT Hybrid
RI-J (if used) integral strategy            ... SPLIT-RIJ (Revised 2003 algorithm where possible)
Printlevel                                  ...      1
Contraction scheme used                     ... GENERAL contraction
Prescreening option                         ... SCHWARTZ
   Thresh                                   ... 1.000e-12
   Tcut                                     ... 1.000e-11
   Tpresel                                  ... 1.000e-11 
Coulomb Range Separation                    ... NOT USED
Exchange Range Separation                   ... NOT USED
Multipole approximations                    ... NOT USED
Finite Nucleus Model                        ... NOT USED
CABS basis                                  ... NOT available
Auxiliary Coulomb fitting basis             ... NOT available
Auxiliary J/K fitting basis                 ... NOT available
Auxiliary Correlation fitting basis         ... NOT available
Auxiliary 'external' fitting basis          ... NOT available

Checking pre-screening integrals            ... done (  0.0 sec) Dimension = 30
Calculate PGC pre-screening integrals       ... done (  0.1 sec) Dimension = 88
Calculate PGC overlap integrals             ... done (  0.1 sec) Dimension = 88
Check shell pair data                       ... done (  0.0 sec)
Shell pair information
Shell pair cut-off parameter TPreSel        ...   1.0e-11
Total number of shell pairs                 ...       465
Shell pairs after pre-screening             ...         0
Total number of primitive shell pairs       ...     94843
Primitive shell pairs kept                  ...      4305

Calculating one electron integrals          ... done (  0.0 sec)
Calculating Nuclear repulsion               ... done (  0.0 sec) ENN=     97.820002132187 Eh

Diagonalization of the overlap matrix:
Smallest eigenvalue                        ... 3.486e-03
Time for diagonalization                   ...    0.001 sec
Threshold for overlap eigenvalues          ... 1.000e-07
Number of eigenvalues below threshold      ... 0
Time for construction of square roots      ...    0.001 sec
Total time needed                          ...    0.003 sec

-------------------
DFT GRID GENERATION
-------------------

General Integration Accuracy     IntAcc      ... 4.388
Radial Grid Type                 RadialGrid  ... OptM3 with GC (2021)
Angular Grid (max. ang.)         AngularGrid ... 4 (Lebedev-302)
Angular grid pruning method      GridPruning ... 4 (adaptive)
Weight generation scheme         WeightScheme... mBecke (2022)
Basis function cutoff            BFCut       ... 1.0000e-10
Integration weight cutoff        WCut        ... 1.0000e-14
Partially contracted basis set               ... off
Rotationally invariant grid construction     ... off
Angular grids for H and He will be reduced by one unit
Core-polarized basis detected: some atoms will have their core
                               angular grid increased.

Total number of grid points                  ...    19936
Total number of batches                      ...      313
Average number of points per batch           ...       63
Average number of grid points per atom       ...     9968
Initializing property integral containers    ... done (  0.0 sec)

SHARK setup successfully completed in   2.9 seconds

Maximum memory used throughout the entire STARTUP-calculation: 328.6 MB
-------------------------------------------------------------------------------
                                 ORCA GUESS
                   Start orbitals & Density for SCF / CASSCF
-------------------------------------------------------------------------------

------------
SCF SETTINGS
------------
Hamiltonian:
 Density Functional     Method          .... DFT(GTOs)
 Exchange Functional    Exchange        .... B88
   X-Alpha parameter    XAlpha          ....  0.666667
   Becke's b parameter  XBeta           ....  0.004200
 Correlation Functional Correlation     .... LYP
 LDA part of GGA corr.  LDAOpt          .... VWN-3
 Gradients option       PostSCFGGA      .... off
 Hybrid DFT is turned on
   Fraction HF Exchange ScalHFX         ....  0.200000
   Scaling of DF-GGA-X  ScalDFX         ....  0.720000
   Scaling of DF-GGA-C  ScalDFC         ....  0.810000
   Scaling of DF-LDA-C  ScalLDAC        ....  1.000000
   Perturbative correction              ....  0.000000
   NL short-range parameter             ....  4.800000


General Settings:
 Integral files         IntName         .... ni_cpks
 Hartree-Fock type      HFTyp           .... UHF
 Total Charge           Charge          ....    0
 Multiplicity           Mult            ....    3
 Number of Electrons    NEL             ....   60
 Basis Dimension        Dim             ....   98
 Nuclear Repulsion      ENuc            ....     97.8200021322 Eh

Convergence Acceleration:
 AO-DIIS                CNVDIIS         .... on
   Start iteration      DIISMaxIt       ....    12
   Startup error        DIISStart       ....  0.200000
   # of expansion vecs  DIISMaxEq       ....     5
   Bias factor          DIISBfac        ....   1.050
   Max. coefficient     DIISMaxC        ....  10.000
 MO-DIIS                CNVKDIIS        .... off
 Trust-Rad. Augm. Hess. CNVTRAH         .... auto
   Auto Start mean grad. ratio tolernc. ....  1.125000
   Auto Start start iteration           ....    50
   Auto Start num. interpolation iter.  ....    10
   Max. Number of Micro iterations      ....    24
   Max. Number of Macro iterations      .... Maxiter - #DIIS iter
   Number of Davidson start vectors     ....     2
   Converg. threshold    (grad. norm)   ....   5.000e-05
   Grad. Scal. Fac. for Micro threshold ....   0.100
   Minimum threshold for Micro iter.    ....   1.000e-02
   NR start threshold (gradient norm)   ....   1.000e-04
   Initial trust radius                 ....   0.400
   Minimum AH scaling param. (alpha)    ....   1.000
   Maximum AH scaling param. (alpha)    .... 1000.000
   Quad. conv. algorithm                .... NR
   White noise on init. David. guess    .... on
   Maximum white noise                  ....   0.010
   Pseudo random numbers                .... off
   Inactive MOs                         .... canonical
   Orbital update algorithm             .... Taylor
   Preconditioner                       .... Diag
   Full preconditioner red. dimension   ....   250
 SOSCF                  CNVSOSCF        .... on
   Start iteration      SOSCFMaxIt      ....   150
   Startup grad/error   SOSCFStart      ....  0.003300
   Hessian update       SOSCFHessUp     .... L-BFGS
 Level Shifting         CNVShift        .... on
   Level shift para.    LevelShift      ....    0.2500
   Turn off err/grad.   ShiftErr        ....    0.0010
 Zerner damping         CNVZerner       .... off
 Static damping         CNVDamp         .... on
   Fraction old density DampFac         ....    0.7000
   Max. Damping (<1)    DampMax         ....    0.9800
   Min. Damping (>=0)   DampMin         ....    0.0000
   Turn off err/grad.   DampErr         ....    0.1000

SCF Procedure:
 Maximum # iterations   MaxIter         ....   500
 SCF integral mode      SCFMode         .... Direct
   Integral package                     .... SHARK and LIBINT hybrid scheme
 Reset frequency        DirectResetFreq ....    20
 Integral Threshold     Thresh          ....  1.000e-12 Eh
 Primitive CutOff       TCut            ....  1.000e-11 Eh

Convergence Tolerance:
 Convergence Check Mode ConvCheckMode   .... Total+1el-Energy
 Convergence forced     ConvForced      .... 0
 Energy Change          TolE            ....  1.000e-08 Eh
 1-El. energy change                    ....  1.000e-05 Eh
 Orbital Gradient       TolG            ....  5.000e-05
 Orbital Rotation angle TolX            ....  5.000e-05
 DIIS Error             TolErr          ....  1.000e-06

------------------------------
INITIAL GUESS: MODEL POTENTIAL
------------------------------
Loading Hartree-Fock densities                     ... done
Calculating cut-offs                               ... done
Initializing the effective Hamiltonian             ... done
Setting up the integral package (SHARK)            ... done
Starting the Coulomb interaction                   ... done (   0.4 sec)
Making the grid                                    ... done (   0.1 sec)
Mapping shells                                     ... done
Starting the XC term evaluation                    ... done (   0.1 sec)
  promolecular density results
     # of electrons  =     60.000540750
     EX              =   -180.355588320
     EC              =     -2.932240521
     EX+EC           =   -183.287828841
Transforming the Hamiltonian                       ... done (   0.0 sec)
Diagonalizing the Hamiltonian                      ... done (   0.0 sec)
Back transforming the eigenvectors                 ... done (   0.0 sec)
Now organizing SCF variables                       ... done
                      ------------------
                      INITIAL GUESS DONE (   0.5 sec)
                      ------------------
----------------------
INITIAL GUESS ORBITALS
----------------------
                      0         1         2         3         4         5   
                 -1068.91869 -163.98720 -163.98625 -163.98625 -158.15098 -30.66696
                   1.00000   1.00000   1.00000   1.00000   1.00000   1.00000
                  --------  --------  --------  --------  --------  --------
  0I   1s        -0.996856  0.000040  0.000000 -0.000000  0.066166  0.031224
  0I   2s        -0.070728  0.000492 -0.000000 -0.000000 -0.990726 -0.103746
  0I   3s         0.029653  0.001238  0.000000 -0.000000 -0.119290  0.966304
  0I   4s        -0.007185  0.004301  0.000000 -0.000000  0.025954  0.105823
  0I   5s         0.021161  0.014169  0.000000 -0.000000 -0.065640 -0.166712
  0I   6s         0.003567  0.007101  0.000000 -0.000000 -0.009998 -0.018715
  0I   7s         0.013064  0.001680 -0.000000 -0.000000 -0.041676 -0.107769
  0I   1pz       -0.000000  0.000000  0.155884  0.987546 -0.000000  0.000000
  0I   1px        0.000032 -0.999743 -0.000000  0.000000 -0.000276  0.000349
  0I   1py       -0.000000 -0.000000  0.987546 -0.155884 -0.000000 -0.000000
  0I   2pz        0.000000  0.000000  0.002962  0.018766 -0.000000 -0.000000
  0I   2px        0.000368 -0.018672 -0.000000  0.000000 -0.001129 -0.035181
  0I   2py       -0.000000 -0.000000  0.018766 -0.002962 -0.000000  0.000000
  0I   3pz       -0.000000 -0.000000 -0.001167 -0.007394  0.000000 -0.000000
  0I   3px        0.003114  0.010282  0.000000 -0.000000 -0.009471 -0.023788
  0I   3py       -0.000000  0.000000 -0.007394  0.001167  0.000000  0.000000
  0I   4pz       -0.000000  0.000000  0.000286  0.001815  0.000000  0.000000
  0I   4px        0.016288  0.012165  0.000000 -0.000000 -0.049796 -0.121317
  0I   4py       -0.000000 -0.000000  0.001815 -0.000286 -0.000000  0.000000
  0I   5pz       -0.000000 -0.000000 -0.000445 -0.002820  0.000000 -0.000000
  0I   5px        0.006660  0.006364  0.000000 -0.000000 -0.020727 -0.051591
  0I   5py       -0.000000  0.000000 -0.002820  0.000445 -0.000000  0.000000
  0I   6pz       -0.000000  0.000000  0.000754  0.004777  0.000000  0.000000
  0I   6px       -0.000281 -0.006953 -0.000000  0.000000  0.000625  0.001453
  0I   6py       -0.000000 -0.000000  0.004777 -0.000754 -0.000000 -0.000000
  0I   1dz2      -0.000029 -0.000029 -0.000000  0.000000  0.000088  0.000248
  0I   1dxz       0.000000 -0.000000 -0.000000 -0.000001 -0.000000 -0.000000
  0I   1dyz       0.000000  0.000000 -0.000000  0.000000 -0.000000 -0.000000
  0I   1dx2y2     0.000050  0.000050  0.000000 -0.000000 -0.000152 -0.000429
  0I   1dxy      -0.000000  0.000000 -0.000001  0.000000  0.000000  0.000000
  0I   2dz2      -0.000840 -0.000922 -0.000000  0.000000  0.002541  0.006160
  0I   2dxz      -0.000000 -0.000000 -0.000014 -0.000086  0.000000  0.000000
  0I   2dyz      -0.000000 -0.000000  0.000000 -0.000000  0.000000 -0.000000
  0I   2dx2y2     0.001455  0.001596  0.000000 -0.000000 -0.004401 -0.010670
  0I   2dxy      -0.000000  0.000000 -0.000086  0.000014  0.000000  0.000000
  0I   3dz2      -0.003373 -0.003598 -0.000000  0.000000  0.010261  0.025042
  0I   3dxz      -0.000000 -0.000000 -0.000066 -0.000418  0.000000  0.000000
  0I   3dyz       0.000000 -0.000000 -0.000000 -0.000000  0.000000  0.000000
  0I   3dx2y2     0.005842  0.006232  0.000000 -0.000000 -0.017773 -0.043373
  0I   3dxy      -0.000000  0.000000 -0.000418  0.000066  0.000000  0.000000
  0I   4dz2      -0.001694 -0.001495 -0.000000  0.000000  0.005191  0.012456
  0I   4dxz      -0.000000 -0.000000 -0.000033 -0.000209  0.000000  0.000000
  0I   4dyz      -0.000000 -0.000000 -0.000000 -0.000000  0.000000 -0.000000
  0I   4dx2y2     0.002934  0.002590  0.000000 -0.000000 -0.008990 -0.021575
  0I   4dxy      -0.000000  0.000000 -0.000209  0.000033 -0.000000 -0.000000
  0I   1f0        0.000000  0.000000  0.000010  0.000061 -0.000000 -0.000000
  0I   1f+1      -0.000366 -0.000586 -0.000000  0.000000  0.001092  0.002661
  0I   1f-1       0.000000 -0.000000  0.000025 -0.000004 -0.000000 -0.000000
  0I   1f+2      -0.000000 -0.000000 -0.000013 -0.000079  0.000000  0.000000
  0I   1f-2      -0.000000  0.000000  0.000000  0.000000 -0.000000 -0.000000
  0I   1f+3      -0.000473 -0.000756 -0.000000  0.000000  0.001410  0.003436
  0I   1f-3       0.000000 -0.000000  0.000097 -0.000015 -0.000000 -0.000000
  0I   2f0        0.000000  0.000000  0.000035  0.000225 -0.000000 -0.000000
  0I   2f+1      -0.000973 -0.001721 -0.000000  0.000000  0.002894  0.006968
  0I   2f-1       0.000000 -0.000000  0.000092 -0.000014 -0.000000 -0.000000
  0I   2f+2      -0.000000  0.000000 -0.000046 -0.000290  0.000000  0.000000
  0I   2f-2      -0.000000  0.000000 -0.000000  0.000000 -0.000000 -0.000000
  0I   2f+3      -0.001256 -0.002222 -0.000000  0.000000  0.003736  0.008996
  0I   2f-3       0.000000  0.000000  0.000355 -0.000056 -0.000000 -0.000000
  0I   1g0       -0.000028  0.000248  0.000000 -0.000000  0.000109  0.000262
  0I   1g+1       0.000000  0.000000  0.000021  0.000133 -0.000000 -0.000000
  0I   1g-1       0.000000  0.000000 -0.000000 -0.000000 -0.000000 -0.000000
  0I   1g+2       0.000041 -0.000369 -0.000000  0.000000 -0.000163 -0.000390
  0I   1g-2       0.000000 -0.000000  0.000063 -0.000010  0.000000 -0.000000
  0I   1g+3       0.000000  0.000000  0.000019  0.000117 -0.000000 -0.000000
  0I   1g-3       0.000000  0.000000 -0.000000  0.000000 -0.000000 -0.000000
  0I   1g+4       0.000054 -0.000488 -0.000000  0.000000 -0.000216 -0.000516
  0I   1g-4       0.000000 -0.000000  0.000166 -0.000026 -0.000000 -0.000000
  1N   1s        -0.002355 -0.002043 -0.000000  0.000000  0.007231  0.017735
  1N   2s        -0.017713 -0.014802 -0.000000  0.000000  0.054354  0.133083
  1N   3s        -0.015733 -0.010816 -0.000000  0.000000  0.048456  0.119077
  1N   4s        -0.005824 -0.001886 -0.000000  0.000000  0.018087  0.044097
  1N   1pz        0.000000  0.000000  0.000056  0.000356 -0.000000 -0.000000
  1N   1px        0.009328  0.010687  0.000000 -0.000000 -0.028238 -0.068272
  1N   1py        0.000000 -0.000000  0.000356 -0.000056 -0.000000  0.000000
  1N   2pz        0.000000  0.000000  0.000035  0.000221 -0.000000 -0.000000
  1N   2px        0.010390  0.009953  0.000000 -0.000000 -0.031616 -0.076786
  1N   2py        0.000000 -0.000000  0.000221 -0.000035  0.000000  0.000000
  1N   3pz        0.000000  0.000000 -0.000028 -0.000179 -0.000000 -0.000000
  1N   3px        0.002518  0.000904  0.000000 -0.000000 -0.007799 -0.018976
  1N   3py        0.000000  0.000000 -0.000179  0.000028 -0.000000  0.000000
  1N   1dz2       0.001472  0.002068  0.000000 -0.000000 -0.004366 -0.010426
  1N   1dxz      -0.000000 -0.000000 -0.000086 -0.000542  0.000000  0.000000
  1N   1dyz      -0.000000  0.000000 -0.000000  0.000000  0.000000  0.000000
  1N   1dx2y2    -0.002549 -0.003583 -0.000000  0.000000  0.007563  0.018058
  1N   1dxy      -0.000000  0.000000 -0.000542  0.000086  0.000000  0.000000
  1N   2dz2       0.001248  0.001545  0.000000 -0.000000 -0.003680 -0.008593
  1N   2dxz      -0.000000 -0.000000 -0.000086 -0.000547  0.000000 -0.000000
  1N   2dyz       0.000000  0.000000 -0.000000  0.000000 -0.000000 -0.000000
  1N   2dx2y2    -0.002161 -0.002677 -0.000000  0.000000  0.006374  0.014884
  1N   2dxy      -0.000000  0.000000 -0.000547  0.000086  0.000000  0.000000
  1N   1f0       -0.000000 -0.000000 -0.000023 -0.000143  0.000000  0.000000
  1N   1f+1      -0.000585 -0.000419 -0.000000  0.000000  0.001734  0.004120
  1N   1f-1      -0.000000 -0.000000 -0.000058  0.000009  0.000000  0.000000
  1N   1f+2       0.000000  0.000000  0.000029  0.000184 -0.000000 -0.000000
  1N   1f-2       0.000000 -0.000000  0.000000 -0.000000 -0.000000 -0.000000
  1N   1f+3      -0.000756 -0.000541 -0.000000  0.000000  0.002238  0.005319
  1N   1f-3      -0.000000  0.000000 -0.000226  0.000036  0.000000  0.000000
                      6         7         8         9        10        11   
                 -30.63640 -30.63484 -30.63484 -22.60809 -22.60802 -22.60802
                   1.00000   1.00000   1.00000   1.00000   1.00000   1.00000
                  --------  --------  --------  --------  --------  --------
  0I   1s        -0.001152 -0.000000 -0.000000  0.000029 -0.000000 -0.000000
  0I   2s         0.002550  0.000000  0.000000  0.000127 -0.000000 -0.000000
  0I   3s        -0.034657 -0.000000 -0.000000  0.000646 -0.000000 -0.000000
  0I   4s        -0.014825 -0.000000  0.000000  0.002011 -0.000000 -0.000000
  0I   5s        -0.031901 -0.000000  0.000000  0.006718 -0.000000 -0.000000
  0I   6s        -0.018155 -0.000000  0.000000  0.003860 -0.000000 -0.000000
  0I   7s        -0.000870  0.000000  0.000000  0.001261 -0.000000 -0.000000
  0I   1pz       -0.000000  0.017006  0.007777 -0.000000  0.000000 -0.000001
  0I   1px        0.018606  0.000000 -0.000000  0.000016 -0.000000 -0.000000
  0I   1py        0.000000 -0.007777  0.017006 -0.000000  0.000001  0.000000
  0I   2pz        0.000000 -0.908842 -0.415604 -0.000000 -0.000003  0.000039
  0I   2px       -0.999573 -0.000000  0.000000  0.000060 -0.000000 -0.000000
  0I   2py       -0.000000  0.415604 -0.908842 -0.000000 -0.000039 -0.000003
  0I   3pz        0.000000 -0.023168 -0.010594 -0.000000  0.000009 -0.000102
  0I   3px       -0.032053 -0.000000  0.000000  0.001282 -0.000000 -0.000000
  0I   3py       -0.000000  0.010594 -0.023168 -0.000000  0.000102  0.000009
  0I   4pz        0.000000  0.005379  0.002460 -0.000000  0.000062 -0.000749
  0I   4px       -0.027013 -0.000000  0.000000  0.007067 -0.000000 -0.000000
  0I   4py       -0.000000 -0.002460  0.005379 -0.000000  0.000749  0.000062
  0I   5pz        0.000000 -0.007885 -0.003606 -0.000000  0.000038 -0.000458
  0I   5px       -0.016213 -0.000000  0.000000  0.002597 -0.000000  0.000000
  0I   5py       -0.000000  0.003606 -0.007885 -0.000000  0.000458  0.000038
  0I   6pz       -0.000000  0.013017  0.005952  0.000000  0.000001 -0.000011
  0I   6px        0.019828  0.000000 -0.000000 -0.000612  0.000000  0.000000
  0I   6py        0.000000 -0.005952  0.013017 -0.000000  0.000011  0.000001
  0I   1dz2       0.000109 -0.000000  0.000000 -0.500007  0.000000  0.000001
  0I   1dxz       0.000000 -0.000050 -0.000023 -0.000001  0.083074 -0.996536
  0I   1dyz      -0.000000  0.000000  0.000000 -0.000000  0.000000 -0.000000
  0I   1dx2y2    -0.000189 -0.000000  0.000000  0.866038 -0.000001 -0.000000
  0I   1dxy       0.000000  0.000023 -0.000050  0.000001  0.996536  0.083074
  0I   2dz2       0.002228  0.000000 -0.000000 -0.001915  0.000000  0.000000
  0I   2dxz       0.000000 -0.000221 -0.000101 -0.000000  0.000261 -0.003134
  0I   2dyz       0.000000 -0.000000 -0.000000 -0.000000  0.000000 -0.000000
  0I   2dx2y2    -0.003858 -0.000000  0.000000  0.003317 -0.000000 -0.000000
  0I   2dxy      -0.000000  0.000101 -0.000221  0.000000  0.003134  0.000261
  0I   3dz2       0.008667  0.000000 -0.000000 -0.000984  0.000000  0.000000
  0I   3dxz       0.000000 -0.001045 -0.000478 -0.000000 -0.000066  0.000794
  0I   3dyz      -0.000000 -0.000000 -0.000000  0.000000  0.000000 -0.000000
  0I   3dx2y2    -0.015012 -0.000000  0.000000  0.001705 -0.000000 -0.000000
  0I   3dxy      -0.000000  0.000478 -0.001045 -0.000000 -0.000794 -0.000066
  0I   4dz2       0.003485  0.000000 -0.000000 -0.002365  0.000000  0.000000
  0I   4dxz       0.000000 -0.000516 -0.000236 -0.000000  0.000291 -0.003489
  0I   4dyz      -0.000000 -0.000000 -0.000000 -0.000000  0.000000 -0.000000
  0I   4dx2y2    -0.006036 -0.000000  0.000000  0.004097 -0.000000 -0.000000
  0I   4dxy      -0.000000  0.000236 -0.000516  0.000000  0.003489  0.000291
  0I   1f0       -0.000000  0.000160  0.000073  0.000000 -0.000008  0.000093
  0I   1f+1       0.001478  0.000000 -0.000000 -0.000273  0.000000  0.000000
  0I   1f-1       0.000000 -0.000030  0.000065  0.000000 -0.000038 -0.000003
  0I   1f+2       0.000000 -0.000206 -0.000094 -0.000000  0.000010 -0.000119
  0I   1f-2      -0.000000 -0.000000  0.000000  0.000000  0.000000 -0.000000
  0I   1f+3       0.001908  0.000000 -0.000000 -0.000353  0.000000  0.000000
  0I   1f-3       0.000000 -0.000116  0.000253  0.000000 -0.000146 -0.000012
  0I   2f0       -0.000000  0.000557  0.000255  0.000000 -0.000027  0.000328
  0I   2f+1       0.004268  0.000000 -0.000000 -0.000823  0.000000  0.000000
  0I   2f-1       0.000000 -0.000104  0.000228  0.000000 -0.000134 -0.000011
  0I   2f+2       0.000000 -0.000720 -0.000329 -0.000000  0.000035 -0.000424
  0I   2f-2      -0.000000  0.000000  0.000000  0.000000 -0.000000 -0.000000
  0I   2f+3       0.005510  0.000000 -0.000000 -0.001062  0.000000  0.000000
  0I   2f-3       0.000000 -0.000403  0.000881  0.000000 -0.000519 -0.000043
  0I   1g0       -0.000634 -0.000000 -0.000000  0.000103 -0.000000 -0.000000
  0I   1g+1      -0.000000  0.000320  0.000146 -0.000000 -0.000012  0.000140
  0I   1g-1      -0.000000  0.000000  0.000000 -0.000000 -0.000000  0.000000
  0I   1g+2       0.000946  0.000000 -0.000000 -0.000154  0.000000  0.000000
  0I   1g-2       0.000000 -0.000069  0.000151  0.000000 -0.000066 -0.000005
  0I   1g+3      -0.000000  0.000282  0.000129 -0.000000 -0.000010  0.000123
  0I   1g-3      -0.000000  0.000000  0.000000 -0.000000 -0.000000  0.000000
  0I   1g+4       0.001251  0.000000 -0.000000 -0.000203  0.000000 -0.000000
  0I   1g-4       0.000000 -0.000183  0.000399 -0.000000 -0.000174 -0.000015
  1N   1s         0.004818  0.000000 -0.000000 -0.001154  0.000000 -0.000000
  1N   2s         0.034674  0.000000 -0.000000 -0.008036  0.000000  0.000000
  1N   3s         0.024502  0.000000 -0.000000 -0.005902  0.000000  0.000000
  1N   4s         0.003429 -0.000000 -0.000000 -0.001322  0.000000 -0.000000
  1N   1pz       -0.000000  0.000895  0.000409 -0.000000 -0.000074  0.000884
  1N   1px       -0.026090 -0.000000  0.000000  0.004651 -0.000000 -0.000000
  1N   1py        0.000000 -0.000409  0.000895 -0.000000 -0.000884 -0.000074
  1N   2pz       -0.000000  0.000525  0.000240  0.000000 -0.000090  0.001078
  1N   2px       -0.023872 -0.000000  0.000000  0.004211 -0.000000 -0.000000
  1N   2py        0.000000 -0.000240  0.000525 -0.000000 -0.001078 -0.000090
  1N   3pz       -0.000000 -0.000465 -0.000213  0.000000 -0.000029  0.000344
  1N   3px       -0.001851 -0.000000  0.000000  0.000302 -0.000000 -0.000000
  1N   3py        0.000000  0.000213 -0.000465  0.000000 -0.000344 -0.000029
  1N   1dz2      -0.005093 -0.000000  0.000000  0.000743 -0.000000  0.000000
  1N   1dxz       0.000000 -0.001399 -0.000640  0.000000  0.000050 -0.000597
  1N   1dyz      -0.000000  0.000000 -0.000000 -0.000000 -0.000000  0.000000
  1N   1dx2y2     0.008821  0.000000 -0.000000 -0.001287  0.000000 -0.000000
  1N   1dxy      -0.000000  0.000640 -0.001399  0.000000  0.000597  0.000050
  1N   2dz2      -0.003722 -0.000000  0.000000  0.000516 -0.000000 -0.000000
  1N   2dxz       0.000000 -0.001376 -0.000629  0.000000  0.000050 -0.000598
  1N   2dyz      -0.000000  0.000000 -0.000000  0.000000 -0.000000  0.000000
  1N   2dx2y2     0.006447  0.000000 -0.000000 -0.000894  0.000000  0.000000
  1N   2dxy      -0.000000  0.000629 -0.001376 -0.000000  0.000598  0.000050
  1N   1f0        0.000000 -0.000348 -0.000159 -0.000000  0.000006 -0.000078
  1N   1f+1       0.000876  0.000000 -0.000000 -0.000117  0.000000 -0.000000
  1N   1f-1      -0.000000  0.000065 -0.000142 -0.000000  0.000032  0.000003
  1N   1f+2      -0.000000  0.000449  0.000205  0.000000 -0.000008  0.000100
  1N   1f-2       0.000000  0.000000 -0.000000  0.000000  0.000000 -0.000000
  1N   1f+3       0.001131  0.000000 -0.000000 -0.000152  0.000000 -0.000000
  1N   1f-3      -0.000000  0.000251 -0.000550 -0.000000  0.000123  0.000010
                     12        13        14        15        16        17   
                 -22.60789 -22.60789 -14.15793  -5.01857  -4.54391  -4.54179
                   1.00000   1.00000   1.00000   1.00000   1.00000   1.00000
                  --------  --------  --------  --------  --------  --------
  0I   1s        -0.000000 -0.000000  0.000026 -0.014688  0.000073  0.000000
  0I   2s        -0.000000 -0.000000  0.000105  0.047873  0.000955 -0.000000
  0I   3s        -0.000000 -0.000000  0.000538 -0.094797  0.002720 -0.000000
  0I   4s        -0.000000 -0.000000  0.001656  1.021735  0.014236 -0.000000
  0I   5s        -0.000000 -0.000000  0.004693  0.326696  0.035844 -0.000000
  0I   6s        -0.000000 -0.000000  0.002804 -0.014997  0.017738 -0.000000
  0I   7s        -0.000000 -0.000000  0.001328  0.195979  0.004666  0.000000
  0I   1pz        0.000000  0.000000 -0.000000  0.000000  0.000000 -0.000000
  0I   1px       -0.000000 -0.000000  0.000008  0.000409 -0.007621  0.000000
  0I   1py       -0.000000 -0.000000  0.000000  0.000000 -0.000000 -0.007706
  0I   2pz       -0.000000 -0.000000  0.000000 -0.000000 -0.000000  0.000000
  0I   2px       -0.000000 -0.000000  0.000093  0.003958  0.025385 -0.000000
  0I   2py       -0.000000  0.000000 -0.000000  0.000000  0.000000  0.024627
  0I   3pz       -0.000000 -0.000000 -0.000000 -0.000000  0.000000 -0.000000
  0I   3px       -0.000000 -0.000000  0.000725  0.038451 -0.992003  0.000000
  0I   3py       -0.000000  0.000000  0.000000 -0.000000 -0.000000 -0.999001
  0I   4pz       -0.000000 -0.000000 -0.000000 -0.000000  0.000000 -0.000000
  0I   4px       -0.000000 -0.000000  0.003694  0.188862  0.020911 -0.000000
  0I   4py        0.000000  0.000000 -0.000000 -0.000000 -0.000000 -0.013921
  0I   5pz       -0.000000 -0.000000 -0.000000 -0.000000  0.000000 -0.000000
  0I   5px       -0.000000 -0.000000  0.001931  0.081556  0.025790 -0.000000
  0I   5py        0.000000 -0.000000 -0.000000 -0.000000 -0.000000  0.016913
  0I   6pz       -0.000000 -0.000000  0.000000 -0.000000  0.000000 -0.000000
  0I   6px        0.000000  0.000000  0.000346  0.000272 -0.028914  0.000000
  0I   6py        0.000000  0.000000  0.000000  0.000000 -0.000000 -0.023789
  0I   1dz2       0.000147  0.866017 -0.000004 -0.000288 -0.000076  0.000000
  0I   1dxz       0.000000  0.000000  0.000000 -0.000000  0.000000 -0.000000
  0I   1dyz      -0.999990  0.000169 -0.000000 -0.000000 -0.000000 -0.000000
  0I   1dx2y2     0.000085  0.499995  0.000007  0.000499  0.000131  0.000000
  0I   1dxy       0.000000  0.000000  0.000000  0.000000  0.000000  0.000014
  0I   2dz2       0.000000  0.002609 -0.000110 -0.009830 -0.001752  0.000000
  0I   2dxz       0.000000  0.000000  0.000000 -0.000000 -0.000000 -0.000000
  0I   2dyz      -0.003012  0.000001 -0.000000 -0.000000 -0.000000  0.000000
  0I   2dx2y2     0.000000  0.001506  0.000190  0.017025  0.003034 -0.000000
  0I   2dxy      -0.000000  0.000000  0.000000 -0.000000  0.000000 -0.000308
  0I   3dz2      -0.000000 -0.001324 -0.000422 -0.039323 -0.008837  0.000000
  0I   3dxz      -0.000000 -0.000000 -0.000000 -0.000000 -0.000000 -0.000000
  0I   3dyz       0.001529 -0.000000  0.000000 -0.000000 -0.000000  0.000000
  0I   3dx2y2    -0.000000 -0.000765  0.000731  0.068109  0.015306 -0.000000
  0I   3dxy      -0.000000 -0.000000 -0.000000 -0.000000  0.000000  0.001117
  0I   4dz2       0.000000  0.002614 -0.000218 -0.017568 -0.003498  0.000000
  0I   4dxz       0.000000  0.000000  0.000000 -0.000000 -0.000000 -0.000000
  0I   4dyz      -0.003018  0.000001 -0.000000 -0.000000 -0.000000  0.000000
  0I   4dx2y2     0.000000  0.001509  0.000378  0.030428  0.006059 -0.000000
  0I   4dxy      -0.000000  0.000000  0.000000 -0.000000  0.000000  0.000563
  0I   1f0        0.000000 -0.000000  0.000000  0.000000  0.000000  0.000000
  0I   1f+1       0.000000  0.000016  0.000025 -0.004502 -0.001344  0.000000
  0I   1f-1       0.000000 -0.000000  0.000000  0.000000 -0.000000 -0.000047
  0I   1f+2       0.000000 -0.000000 -0.000000 -0.000000 -0.000000  0.000000
  0I   1f-2      -0.000020  0.000000  0.000000  0.000000  0.000000  0.000000
  0I   1f+3      -0.000000 -0.000012  0.000032 -0.005812 -0.001735  0.000000
  0I   1f-3       0.000000 -0.000000  0.000000  0.000000  0.000000 -0.000157
  0I   2f0        0.000000 -0.000000  0.000000  0.000000 -0.000000  0.000000
  0I   2f+1       0.000000  0.000048  0.000109 -0.010965 -0.003890  0.000000
  0I   2f-1       0.000000 -0.000000  0.000000  0.000000 -0.000000 -0.000228
  0I   2f+2       0.000000 -0.000000 -0.000000 -0.000000  0.000000  0.000000
  0I   2f-2      -0.000061  0.000000  0.000000  0.000000  0.000000  0.000000
  0I   2f+3      -0.000000 -0.000037  0.000141 -0.014156 -0.005022  0.000000
  0I   2f-3      -0.000000 -0.000000  0.000000  0.000000  0.000000 -0.000891
  0I   1g0       -0.000000 -0.000022 -0.000048 -0.000108  0.000409 -0.000000
  0I   1g+1       0.000000 -0.000000 -0.000000  0.000000 -0.000000 -0.000000
  0I   1g-1       0.000014 -0.000000 -0.000000  0.000000 -0.000000 -0.000000
  0I   1g+2       0.000000  0.000020  0.000072  0.000152 -0.000598  0.000000
  0I   1g-2       0.000000 -0.000000  0.000000  0.000000  0.000000 -0.000121
  0I   1g+3      -0.000000  0.000000  0.000000  0.000000  0.000000 -0.000000
  0I   1g-3       0.000037 -0.000000 -0.000000  0.000000 -0.000000 -0.000000
  0I   1g+4      -0.000000 -0.000026  0.000095  0.000206 -0.000798  0.000000
  0I   1g-4       0.000000 -0.000000 -0.000000  0.000000 -0.000000 -0.000293
  1N   1s         0.000000  0.000000 -1.000472 -0.027518 -0.005119  0.000000
  1N   2s         0.000000  0.000000 -0.002097 -0.207919 -0.037323  0.000000
  1N   3s         0.000000  0.000000  0.001939 -0.186919 -0.026354  0.000000
  1N   4s         0.000000  0.000000 -0.006299 -0.064836 -0.004314  0.000000
  1N   1pz        0.000000  0.000000  0.000000 -0.000000  0.000000  0.000000
  1N   1px       -0.000000 -0.000000  0.002379  0.104077  0.028115 -0.000000
  1N   1py        0.000000 -0.000000  0.000000  0.000000 -0.000000 -0.001030
  1N   2pz        0.000000  0.000000  0.000000  0.000000  0.000000  0.000000
  1N   2px       -0.000000 -0.000000  0.002664  0.117473  0.025989 -0.000000
  1N   2py        0.000000 -0.000000  0.000000  0.000000 -0.000000 -0.000311
  1N   3pz       -0.000000  0.000000  0.000000  0.000000  0.000000  0.000000
  1N   3px       -0.000000 -0.000000  0.001289  0.027777  0.002825 -0.000000
  1N   3py       -0.000000  0.000000  0.000000  0.000000 -0.000000  0.000684
  1N   1dz2      -0.000000 -0.000121  0.000323  0.015387  0.005075 -0.000000
  1N   1dxz      -0.000000  0.000000 -0.000000 -0.000000 -0.000000 -0.000000
  1N   1dyz       0.000140 -0.000000 -0.000000 -0.000000 -0.000000  0.000000
  1N   1dx2y2    -0.000000 -0.000070 -0.000559 -0.026651 -0.008790  0.000000
  1N   1dxy      -0.000000  0.000000 -0.000000 -0.000000  0.000000  0.001917
  1N   2dz2      -0.000000 -0.000162  0.000291  0.011761  0.003542 -0.000000
  1N   2dxz      -0.000000  0.000000 -0.000000 -0.000000 -0.000000 -0.000000
  1N   2dyz       0.000187 -0.000000 -0.000000  0.000000  0.000000  0.000000
  1N   2dx2y2    -0.000000 -0.000093 -0.000503 -0.020370 -0.006134  0.000000
  1N   2dxy      -0.000000  0.000000 -0.000000 -0.000000  0.000000  0.001652
  1N   1f0        0.000000 -0.000000 -0.000000 -0.000000 -0.000000 -0.000000
  1N   1f+1       0.000000  0.000069 -0.000022 -0.005416 -0.000587  0.000000
  1N   1f-1       0.000000 -0.000000 -0.000000 -0.000000 -0.000000  0.000146
  1N   1f+2      -0.000000 -0.000000  0.000000  0.000000  0.000000 -0.000000
  1N   1f-2      -0.000087  0.000000  0.000000  0.000000  0.000000  0.000000
  1N   1f+3      -0.000000 -0.000053 -0.000028 -0.006992 -0.000758  0.000000
  1N   1f-3       0.000000  0.000000 -0.000000 -0.000000  0.000000  0.000563
                     18        19        20        21        22        23   
                  -4.54179  -1.94896  -1.94697  -1.94697  -1.94542  -1.94535
                   1.00000   1.00000   1.00000   1.00000   1.00000   1.00000
                  --------  --------  --------  --------  --------  --------
  0I   1s         0.000000  0.000094 -0.000000 -0.000000  0.000000 -0.000000
  0I   2s         0.000000  0.000299 -0.000000 -0.000000  0.000000  0.000000
  0I   3s         0.000000  0.001715 -0.000000 -0.000000  0.000000 -0.000000
  0I   4s         0.000000  0.004179 -0.000000 -0.000000  0.000000 -0.000000
  0I   5s         0.000000  0.020642 -0.000000 -0.000000  0.000000 -0.000000
  0I   6s         0.000000  0.011511 -0.000000 -0.000000  0.000000 -0.000000
  0I   7s         0.000000  0.002818 -0.000000 -0.000000  0.000000 -0.000000
  0I   1pz       -0.007706  0.000000 -0.000003 -0.000002 -0.000000  0.000000
  0I   1px       -0.000000  0.000017  0.000000 -0.000000  0.000000 -0.000000
  0I   1py        0.000000 -0.000000 -0.000002  0.000003 -0.000000  0.000000
  0I   2pz        0.024627  0.000000  0.000040  0.000028  0.000000 -0.000000
  0I   2px        0.000000  0.000415 -0.000000 -0.000000  0.000000 -0.000000
  0I   2py       -0.000000  0.000000  0.000028 -0.000040  0.000000  0.000000
  0I   3pz       -0.999001  0.000000 -0.000223 -0.000157  0.000000 -0.000000
  0I   3px       -0.000000  0.002040 -0.000000 -0.000000  0.000000 -0.000000
  0I   3py        0.000000  0.000000 -0.000157  0.000223  0.000000  0.000000
  0I   4pz       -0.013921  0.000000  0.002647  0.001862  0.000000 -0.000000
  0I   4px        0.000000  0.023011 -0.000000 -0.000000  0.000000 -0.000000
  0I   4py       -0.000000  0.000000  0.001862 -0.002647 -0.000000 -0.000000
  0I   5pz        0.016913  0.000000  0.001079  0.000759  0.000000 -0.000000
  0I   5px        0.000000  0.007068  0.000000 -0.000000  0.000000 -0.000000
  0I   5py       -0.000000  0.000000  0.000759 -0.001079 -0.000000 -0.000000
  0I   6pz       -0.023789 -0.000000  0.000152  0.000107  0.000000 -0.000000
  0I   6px       -0.000000 -0.001127  0.000000  0.000000 -0.000000  0.000000
  0I   6py        0.000000  0.000000  0.000107 -0.000152 -0.000000  0.000000
  0I   1dz2      -0.000000  0.001488  0.000000 -0.000000  0.000000  0.002625
  0I   1dxz       0.000014  0.000000 -0.002474 -0.001741  0.000000 -0.000000
  0I   1dyz       0.000000  0.000000  0.000000 -0.000000  0.003031 -0.000000
  0I   1dx2y2     0.000000 -0.002578  0.000000  0.000000  0.000000  0.001516
  0I   1dxy      -0.000000  0.000000 -0.001741  0.002474 -0.000000 -0.000000
  0I   2dz2      -0.000000 -0.500844  0.000000  0.000000 -0.000000 -0.866009
  0I   2dxz      -0.000308  0.000000  0.818186  0.575572 -0.000000  0.000000
  0I   2dyz       0.000000  0.000000  0.000000 -0.000000 -0.999981  0.000000
  0I   2dx2y2     0.000000  0.867487 -0.000000 -0.000000 -0.000000 -0.499991
  0I   2dxy      -0.000000  0.000000  0.575572 -0.818186  0.000000  0.000000
  0I   3dz2      -0.000000 -0.004591  0.000000  0.000000  0.000000  0.002331
  0I   3dxz       0.001117  0.000000  0.000278  0.000196  0.000000 -0.000000
  0I   3dyz       0.000000 -0.000000 -0.000000 -0.000000  0.002708 -0.000000
  0I   3dx2y2     0.000000  0.007953 -0.000000 -0.000000  0.000000  0.001346
  0I   3dxy      -0.000000 -0.000000  0.000196 -0.000278  0.000000 -0.000000
  0I   4dz2      -0.000000 -0.005491  0.000000  0.000000 -0.000000 -0.005998
  0I   4dxz       0.000563  0.000000  0.006583  0.004631  0.000000 -0.000000
  0I   4dyz       0.000000  0.000000 -0.000000 -0.000000 -0.006922  0.000000
  0I   4dx2y2     0.000000  0.009510 -0.000000 -0.000000 -0.000000 -0.003463
  0I   4dxy      -0.000000 -0.000000  0.004631 -0.006583  0.000000  0.000000
  0I   1f0       -0.000095 -0.000000 -0.000802 -0.000564 -0.000000 -0.000000
  0I   1f+1      -0.000000 -0.001877  0.000000  0.000000 -0.000000 -0.000361
  0I   1f-1       0.000000 -0.000000 -0.000217  0.000308 -0.000000 -0.000000
  0I   1f+2       0.000133  0.000000  0.001011  0.000711 -0.000000 -0.000000
  0I   1f-2      -0.000000 -0.000000  0.000000 -0.000000 -0.000501  0.000000
  0I   1f+3      -0.000000 -0.002423  0.000000  0.000000  0.000000  0.000280
  0I   1f-3      -0.000000 -0.000000 -0.000881  0.001253 -0.000000 -0.000000
  0I   2f0       -0.000564 -0.000000 -0.001127 -0.000793 -0.000000 -0.000000
  0I   2f+1      -0.000000 -0.003114  0.000000  0.000000 -0.000000 -0.000275
  0I   2f-1       0.000000 -0.000000 -0.000326  0.000464 -0.000000 -0.000000
  0I   2f+2       0.000726  0.000000  0.001459  0.001026 -0.000000 -0.000000
  0I   2f-2      -0.000000 -0.000000  0.000000 -0.000000 -0.000340 -0.000000
  0I   2f+3      -0.000000 -0.004020  0.000000  0.000000  0.000000  0.000213
  0I   2f-3      -0.000000 -0.000000 -0.001255  0.001784  0.000000 -0.000000
  0I   1g0        0.000000  0.000530 -0.000000 -0.000000  0.000000  0.000137
  0I   1g+1      -0.000231  0.000000 -0.000581 -0.000409 -0.000000 -0.000000
  0I   1g-1      -0.000000  0.000000  0.000000  0.000000  0.000101 -0.000000
  0I   1g+2      -0.000000 -0.000806  0.000000  0.000000 -0.000000 -0.000122
  0I   1g-2       0.000000  0.000000 -0.000173  0.000247 -0.000000 -0.000000
  0I   1g+3      -0.000216  0.000000 -0.000483 -0.000340  0.000000  0.000000
  0I   1g-3      -0.000000  0.000000  0.000000  0.000000  0.000267 -0.000000
  0I   1g+4       0.000000 -0.001058 -0.000000  0.000000  0.000000  0.000162
  0I   1g-4      -0.000000  0.000000 -0.000503  0.000715 -0.000000 -0.000000
  1N   1s        -0.000000 -0.004594  0.000000  0.000000 -0.000000  0.000000
  1N   2s        -0.000000 -0.017008  0.000000  0.000000 -0.000000  0.000000
  1N   3s        -0.000000 -0.018592  0.000000  0.000000 -0.000000  0.000000
  1N   4s        -0.000000 -0.003521 -0.000000  0.000000 -0.000000  0.000000
  1N   1pz       -0.001030  0.000000 -0.001340 -0.000943 -0.000000  0.000000
  1N   1px        0.000000  0.007222 -0.000000 -0.000000  0.000000 -0.000000
  1N   1py        0.000000  0.000000 -0.000943  0.001340 -0.000000 -0.000000
  1N   2pz       -0.000311  0.000000 -0.003477 -0.002446 -0.000000  0.000000
  1N   2px        0.000000  0.013105 -0.000000 -0.000000  0.000000 -0.000000
  1N   2py        0.000000  0.000000 -0.002446  0.003477 -0.000000 -0.000000
  1N   3pz        0.000684 -0.000000 -0.001027 -0.000723  0.000000  0.000000
  1N   3px        0.000000  0.000631 -0.000000 -0.000000  0.000000  0.000000
  1N   3py        0.000000 -0.000000 -0.000723  0.001027 -0.000000  0.000000
  1N   1dz2       0.000000  0.001311  0.000000  0.000000 -0.000000  0.000325
  1N   1dxz       0.001917 -0.000000  0.001130  0.000795  0.000000  0.000000
  1N   1dyz      -0.000000  0.000000  0.000000 -0.000000  0.000378 -0.000000
  1N   1dx2y2    -0.000000 -0.002271 -0.000000  0.000000  0.000000  0.000188
  1N   1dxy      -0.000000 -0.000000  0.000795 -0.001130  0.000000  0.000000
  1N   2dz2       0.000000  0.001290  0.000000 -0.000000 -0.000000  0.000415
  1N   2dxz       0.001652 -0.000000  0.001375  0.000968  0.000000  0.000000
  1N   2dyz      -0.000000  0.000000  0.000000 -0.000000  0.000482 -0.000000
  1N   2dx2y2    -0.000000 -0.002235 -0.000000  0.000000 -0.000000  0.000240
  1N   2dxy      -0.000000  0.000000  0.000968 -0.001375  0.000000  0.000000
  1N   1f0        0.000356  0.000000  0.000148  0.000104 -0.000000 -0.000000
  1N   1f+1      -0.000000  0.000259 -0.000000 -0.000000  0.000000 -0.000125
  1N   1f-1       0.000000  0.000000  0.000042 -0.000060 -0.000000 -0.000000
  1N   1f+2      -0.000460 -0.000000 -0.000190 -0.000134  0.000000 -0.000000
  1N   1f-2       0.000000 -0.000000 -0.000000  0.000000 -0.000161  0.000000
  1N   1f+3      -0.000000  0.000334 -0.000000 -0.000000 -0.000000  0.000097
  1N   1f-3      -0.000000  0.000000  0.000165 -0.000234 -0.000000  0.000000
                     24        25        26        27        28        29   
                  -0.74155  -0.44874  -0.34061  -0.31435  -0.31435  -0.21874
                   1.00000   1.00000   1.00000   1.00000   1.00000   1.00000
                  --------  --------  --------  --------  --------  --------
  0I   1s        -0.001127 -0.004269 -0.002001  0.000000 -0.000000  0.000000
  0I   2s         0.006107  0.015778  0.004719  0.000000 -0.000000  0.000000
  0I   3s        -0.001320 -0.020013 -0.014691  0.000000 -0.000000  0.000000
  0I   4s         0.058357  0.116169  0.022110  0.000000 -0.000000  0.000000
  0I   5s        -0.159675 -0.727929 -0.372223  0.000000 -0.000000  0.000000
  0I   6s        -0.007877 -0.089062 -0.072917  0.000000 -0.000000  0.000000
  0I   7s         0.035222  0.103060  0.032188  0.000000  0.000000  0.000000
  0I   1pz       -0.000000  0.000000  0.000000  0.001368  0.000721 -0.001695
  0I   1px        0.000825  0.000307 -0.001713 -0.000000 -0.000000  0.000000
  0I   1py        0.000000 -0.000000 -0.000000  0.000721 -0.001368 -0.000552
  0I   2pz        0.000000 -0.000000  0.000000 -0.002953 -0.001557  0.006214
  0I   2px        0.001074  0.002487  0.003723  0.000000  0.000000  0.000000
  0I   2py       -0.000000  0.000000 -0.000000 -0.001557  0.002953  0.002024
  0I   3pz        0.000000 -0.000000 -0.000000  0.017019  0.008975 -0.001030
  0I   3px        0.034689  0.023614 -0.022249  0.000000 -0.000000  0.000000
  0I   3py        0.000000 -0.000000 -0.000000  0.008975 -0.017019 -0.000335
  0I   4pz        0.000000 -0.000000  0.000000 -0.505948 -0.266806  0.800357
  0I   4px       -0.112663  0.099616  0.634454  0.000000 -0.000000  0.000000
  0I   4py        0.000000 -0.000000 -0.000000 -0.266806  0.505948  0.260651
  0I   5pz        0.000000 -0.000000  0.000000  0.017404  0.009178  0.022541
  0I   5px        0.041440  0.056787 -0.020698  0.000000 -0.000000  0.000000
  0I   5py        0.000000 -0.000000 -0.000000  0.009178 -0.017404  0.007341
  0I   6pz       -0.000000  0.000000  0.000000  0.008676  0.004575 -0.004118
  0I   6px        0.005304  0.002772 -0.011656 -0.000000 -0.000000 -0.000000
  0I   6py        0.000000 -0.000000 -0.000000  0.004575 -0.008676 -0.001341
  0I   1dz2      -0.000242 -0.000215  0.000097  0.000000 -0.000000  0.000000
  0I   1dxz      -0.000000  0.000000  0.000000  0.000209  0.000110  0.000217
  0I   1dyz      -0.000000  0.000000 -0.000000 -0.000000  0.000000 -0.000000
  0I   1dx2y2     0.000419  0.000372 -0.000167 -0.000000  0.000000 -0.000000
  0I   1dxy      -0.000000  0.000000  0.000000  0.000110 -0.000209  0.000071
  0I   2dz2      -0.022370 -0.007781  0.010170 -0.000000  0.000000 -0.000000
  0I   2dxz       0.000000 -0.000000 -0.000000  0.017163  0.009051  0.016305
  0I   2dyz       0.000000 -0.000000  0.000000  0.000000 -0.000000  0.000000
  0I   2dx2y2     0.038746  0.013478 -0.017615  0.000000 -0.000000  0.000000
  0I   2dxy       0.000000 -0.000000 -0.000000  0.009051 -0.017163  0.005310
  0I   3dz2       0.014887 -0.019556 -0.031372 -0.000000  0.000000 -0.000000
  0I   3dxz       0.000000 -0.000000  0.000000 -0.042681 -0.022507 -0.048768
  0I   3dyz       0.000000 -0.000000  0.000000  0.000000 -0.000000  0.000000
  0I   3dx2y2    -0.025784  0.033872  0.054339  0.000000 -0.000000  0.000000
  0I   3dxy       0.000000 -0.000000  0.000000 -0.022507  0.042681 -0.015882
  0I   4dz2      -0.000503 -0.007576 -0.005189 -0.000000  0.000000 -0.000000
  0I   4dxz      -0.000000 -0.000000  0.000000 -0.005638 -0.002973 -0.007431
  0I   4dyz      -0.000000 -0.000000 -0.000000 -0.000000  0.000000  0.000000
  0I   4dx2y2     0.000870  0.013122  0.008987  0.000000 -0.000000  0.000000
  0I   4dxy      -0.000000 -0.000000  0.000000 -0.002973  0.005638 -0.002420
  0I   1f0       -0.000000  0.000000 -0.000000  0.009616  0.005071  0.009074
  0I   1f+1       0.009094 -0.000887 -0.012003 -0.000000  0.000000 -0.000000
  0I   1f-1      -0.000000  0.000000 -0.000000  0.002076 -0.003937  0.001201
  0I   1f+2       0.000000 -0.000000  0.000000 -0.012429 -0.006554 -0.011693
  0I   1f-2       0.000000 -0.000000  0.000000  0.000000  0.000000 -0.000000
  0I   1f+3       0.011741 -0.001145 -0.015496 -0.000000  0.000000 -0.000000
  0I   1f-3      -0.000000  0.000000 -0.000000  0.008023 -0.015214  0.004668
  0I   2f0       -0.000000  0.000000 -0.000000  0.009636  0.005081  0.008444
  0I   2f+1       0.008171 -0.004356 -0.013083 -0.000000  0.000000 -0.000000
  0I   2f-1      -0.000000  0.000000 -0.000000  0.002076 -0.003937  0.001119
  0I   2f+2       0.000000 -0.000000  0.000000 -0.012444 -0.006562 -0.010889
  0I   2f-2       0.000000 -0.000000  0.000000  0.000000  0.000000 -0.000000
  0I   2f+3       0.010549 -0.005623 -0.016890 -0.000000  0.000000 -0.000000
  0I   2f-3      -0.000000  0.000000 -0.000000  0.008036 -0.015239  0.004345
  0I   1g0       -0.001206 -0.000116  0.001362 -0.000000  0.000000 -0.000000
  0I   1g+1      -0.000000  0.000000 -0.000000  0.002129  0.001123  0.001388
  0I   1g-1      -0.000000  0.000000 -0.000000 -0.000000  0.000000 -0.000000
  0I   1g+2       0.001794  0.000162 -0.002036 -0.000000  0.000000 -0.000000
  0I   1g-2      -0.000000 -0.000000  0.000000  0.000529 -0.001004  0.000213
  0I   1g+3      -0.000000  0.000000 -0.000000  0.001878  0.000990  0.001225
  0I   1g-3      -0.000000  0.000000 -0.000000 -0.000000  0.000000 -0.000000
  0I   1g+4       0.002375  0.000220 -0.002690  0.000000 -0.000000  0.000000
[...]
 1 N  f+1             0.0       8.5       0.0       0.7       0.0       0.0
 1 N  f-1             0.2       0.0       0.0       0.0       0.9       0.4
 1 N  f+2             1.2       0.0       0.0       0.0       3.9       9.2
 1 N  f-2             0.0       0.0      13.6       0.0       0.0       0.0
 1 N  f+3             0.0       5.1       0.0       1.2       0.0       0.0
 1 N  f-3             2.5       0.0       0.0       0.0      13.8       5.9

                     96        97   
                   5.35643   6.40930
                   0.00000   0.00000
                  --------  --------
 0 I  s              59.7      30.0
 0 I  px              4.0      13.3
 0 I  dz2             0.6       1.9
 0 I  dx2y2           1.9       5.6
 0 I  f+1             1.2       0.5
 0 I  f+3             1.9       0.8
 0 I  g0              0.8       0.2
 0 I  g+2             1.8       0.4
 0 I  g+4             3.2       0.6
 1 N  s               7.7      22.1
 1 N  px              9.5       9.4
 1 N  dz2             1.0       2.8
 1 N  dx2y2           3.1       8.3
 1 N  f+1             1.3       1.6
 1 N  f+3             2.2       2.6


                      *****************************
                      * MAYER POPULATION ANALYSIS *
                      *****************************

  NA   - Mulliken gross atomic population
  ZA   - Total nuclear charge
  QA   - Mulliken gross atomic charge
  VA   - Mayer's total valence
  BVA  - Mayer's bonded valence
  FA   - Mayer's free valence

  ATOM       NA         ZA         QA         VA         BVA        FA
  0 I     52.7308    53.0000     0.2692     1.6986     1.6081     0.0905
  1 N      7.2692     7.0000    -0.2692     3.0562     1.6081     1.4481

  Mayer bond orders larger than 0.100000
B(  0-I ,  1-N ) :   1.6081 

-------
TIMINGS
-------

Total SCF time: 0 days 0 hours 8 min 4 sec 

Total time                  ....     484.518 sec
Sum of individual times     ....     484.459 sec  (100.0%)

SCF preparation             ....       0.140 sec  (  0.0%)
Fock matrix formation       ....     483.877 sec  ( 99.9%)
  Startup                   ....       0.058 sec  (  0.0% of F)
  Coulomb+Exchange Fock     ....     479.376 sec  ( 99.1% of F)
  XC integration            ....       4.274 sec  (  0.9% of F)
    XC Preparation          ....       0.000 sec  (  0.0% of XC)
    Basis function eval.    ....       1.631 sec  ( 38.2% of XC)
    Density eval.           ....       0.572 sec  ( 13.4% of XC)
    XC-Functional eval.     ....       0.260 sec  (  6.1% of XC)
    XC-Potential eval.      ....       1.667 sec  ( 39.0% of XC)
Diagonalization             ....       0.000 sec  (  0.0%)
Density matrix formation    ....       0.119 sec  (  0.0%)
Total Energy calculation    ....       0.034 sec  (  0.0%)
Population analysis         ....       0.033 sec  (  0.0%)
Orbital Transformation      ....       0.017 sec  (  0.0%)
Orbital Orthonormalization  ....       0.000 sec  (  0.0%)
DIIS solution               ....       0.170 sec  (  0.0%)
  MO trafo                  ....       0.000 sec  (  0.0 % of DIIS)
  Orb grad                  ....       0.000 sec  (  0.0 % of DIIS)
  Energy W gradient         ....       0.000 sec  (  0.0 % of DIIS)
  DIIS error                ....       0.004 sec  (  2.3 % of DIIS)
  DIIS work                 ....       0.138 sec  ( 81.1 % of DIIS)
  Form Q                    ....       0.000 sec  (  0.0 % of DIIS)
  Form QpQm                 ....       0.000 sec  (  0.0 % of DIIS)
  Exp/Cayley                ....       0.000 sec  (  0.0 % of DIIS)
  Orb update                ....       0.000 sec  (  0.0 % of DIIS)
  Wake-sleep                ....       0.020 sec  ( 11.7 % of DIIS)
SOSCF solution              ....       0.069 sec  (  0.0%)
  MO trafo                  ....       0.030 sec  ( 43.3 % of SOSCF)
  Orb grad                  ....       0.006 sec  (  8.3 % of SOSCF)
  Rot update                ....       0.013 sec  ( 19.3 % of SOSCF)
  Step                      ....       0.020 sec  ( 29.0 % of SOSCF)
Finished LeanSCF after 484.5 sec

Maximum memory used throughout the entire LEANSCF-calculation: 427.3 MB

------------------------------------------------------------------------------
                         ORCA PROPERTY INTEGRAL CALCULATIONS
------------------------------------------------------------------------------

GBWName                                   ... ni_cpks.gbw
Number of atoms                           ...      2
Number of basis functions                 ...     98
Max core memory                           ...   1024 MB

Dipole integrals                          ... YES
Quadrupole integrals                      ...  NO
Linear momentum integrals                 ...  NO
Angular momentum integrals                ... YES
Higher moments length integrals           ...  NO
Higher moments velocity integrals         ...  NO
Kinetic energy integrals                  ... YES
GIAO right hand sides                     ...  NO
GIAO dipole derivative integrals          ...  NO
SOC integrals                             ... YES
EPR diamagnetic integrals (GIAO)          ...  NO
EPR gauge integrals                       ... YES
Field gradient integrals                  ...  NO (   0 nuclei)
Spin-dipole/Fermi contact integrals       ...  NO (   0 nuclei)
Contact density integrals                 ...  NO (   0 nuclei)
Nucleus-orbit integrals                   ...  NO (   0 nuclei)
Geometric perturbations                   ...  NO (   2 nuclei)

Choice of electric origin   ... Center of mass
Position of electric origin ... (  0.3770,  0.0000,  0.0000) 
Choice of magnetic origin   ... Center of nuclear charge
Position of magnetic origin ... (  0.4425,  0.0000,  0.0000) 

Calculating integrals                     ... Electric Dipole (Length)     done (  0.0 sec)
Calculating integrals                     ... Kinetic Energy               done (  0.0 sec)
Calculating integrals                     ... Angular Momentum  (MagOri)   done (  0.0 sec)
Calculating integrals                     ... EPR-gauge integrals          done (  0.0 sec)
  g-Tensor DSO: Zeff (2-electron approx.) ... YES 
Calculating integrals                     ... Spin-Orbit Coupling
  Spin-orbit operator                     ... Spin-Orbit Mean-Field (SOMF)
      1-El-Flag                           ...  1 ON
      Coulomb-Flag                        ...  2 ON (Via COSJ)
      Exchange-Flag                       ...  3 ON (AMFI type)
      DFT-Correlation Flag                ...  0 OFF
      Max-Center                          ...  4   
      Relativistic Picture Change         ... OFF     
  Electron density on the grid            ... done (%5.1 lf sec) NEL=     0.088018000
  SOC Coulomb terms                       ... done (%5.1 lf sec)
  One-electron part                       ... done (  0.0 sec)
  Two-electron DoJ,X=0,1 MaxCenter=1      ... done (132.7 sec)
  SOC integrals done (144.1 sec)

Property integrals calculated in 144.1 sec

Maximum memory used throughout the entire PROPINT-calculation: 1518.7 MB

-------------------------   --------------------
FINAL SINGLE POINT ENERGY     -6733.791531517571
-------------------------   --------------------

------------------------------------------------------------------------------
                            ORCA SCF RESPONSE CALCULATION
------------------------------------------------------------------------------

GBWName                                 ... ni_cpks.gbw
Number of atoms                         ...      2
Number of basis functions               ...     98
Max core memory                         ...   1024 MB

Electric field perturbation             ...  NO
Quadrupolar field perturbation          ...  NO
Magnetic field perturbation (no GIAO)   ... YES
Magnetic field perturbation (with GIAO) ...  NO
Linear momentum (velocity) perturbation ...  NO
Spin-orbit coupling perturbation        ...  NO
Choice of electric origin               ... Center of mass
Position of electric origin             ...     0.377015     0.000000     0.000000
Choice of magnetic origin               ... Center of nuclear charge
Position of magnetic origin             ...     0.442479     0.000000     0.000000
Nuclear geometric perturbations         ...  NO (   6 perturbations)
Nucleus-orbit perturbations             ...  NO (   0 perturbations)
Spin-dipole/Fermi contact perturbations ...  NO (   0 perturbations)

Total number of real perturbations      ...      0
Total number of imaginary perturbations ...      3
Total number of triplet perturbations   ...      0
Total number of SOC perturbations       ...      0


                              ***************************
                              * IMAGINARY PERTURBATIONS *
                              ***************************



-------------------
SHARK CP-SCF DRIVER
-------------------

Dimension of the orbital basis          ...     98
Dimension of the CPSCF-problem          ...   4078
Number of operators                     ...      2
Max. number of iterations               ...    128
Convergence Tolerance                   ... 1.0e-03
Number of perturbations                 ...      3
Perturbation type                       ... IMAGINARY

----------------------------
POPLE LINEAR EQUATION SOLVER
----------------------------

  ITERATION   0:   ||err||_max =   1.0330e+00 (  26.1 sec   1/  3 done)
  ITERATION   1:   ||err||_max =   4.0874e-02 (  26.0 sec   1/  3 done)
  ITERATION   2:   ||err||_max =   4.0681e-03 (  25.9 sec   1/  3 done)
  ITERATION   3:   ||err||_max =   3.3027e-04 (  26.0 sec   3/  3 done)

CP-SCF equations solved in 104.0 sec
Response densities calculated in   0.0 sec

Maximum memory used throughout the entire SCFRESP-calculation: 428.7 MB

------------------------------------------------------------------------------
                              ORCA PROPERTY CALCULATIONS
------------------------------------------------------------------------------

GBWName                                 ... ni_cpks.gbw
Number of atoms                         ...      2
Number of basis functions               ...     98
Max core memory                         ...   1024 MB

Electric properties:
Dipole moment                           ... YES
Quadrupole moment                       ...  NO
Static polarizability (Dipole/Dipole)   ...  NO
Static polarizability (Dipole/Quad.)    ...  NO
Static polarizability (Quad./Quad.)     ...  NO
Static polarizability (Velocity)        ...  NO

Atomic electric properties:
Dipole moment                           ...  NO
Quadrupole moment                       ...  NO
Static polarizability                   ...  NO

Choice of electric origin               ... Center of mass
Position of electric origin             ...     0.377015     0.000000     0.000000

General magnetic properties:
Magnetizability                         ...  NO

EPR properties:
g-Tensor (aka g-matrix)                 ... YES
Zero-Field splitting spin-orbit         ...  NO
Zero-field splitting spin-spin          ...  NO
Hyperfine couplings                     ...  NO (   0 nuclei)
Quadrupole couplings                    ...  NO (   0 nuclei)
Contact density                         ...  NO (   0 nuclei)

NMR properties:
Chemical shifts                         ...  NO (   0 nuclei)
Spin-rotation constants                 ...  NO (   0 nuclei)
Spin-spin couplings                     ...  NO (   0 nuclei,    0 pairs)

Choice of magnetic origin               ... Center of nuclear charge
Position of magnetic origin             ...     0.442479     0.000000     0.000000

Properties with geometric perturbations:
SCF Hessian                             ...  NO
IR spectrum                             ...  NO
VCD spectrum                            ...  NO
X-ray spectroscopy properties:
SCF XES/XAS/RIXS spectra                ...  NO


-------------
DIPOLE MOMENT
-------------

Method             : SCF
Type of density    : Electron Density
Multiplicity       :   3
Irrep              :   0
Energy             : -6733.7915315175705473 Eh
Relativity type    : 
Basis              : AO
                                X                 Y                 Z
Electronic contribution:     -4.386470802      -0.000000000      -0.000000002
Nuclear contribution   :      3.927853484       0.000000000       0.000000000
                        -----------------------------------------
Total Dipole Moment    :     -0.458617318      -0.000000000      -0.000000002
                        -----------------------------------------
Magnitude (a.u.)       :      0.458617318
Magnitude (Debye)      :      1.165712581



--------------------
Rotational spectrum 
--------------------
 
Rotational constants in cm-1:             0.000000             0.331763             0.331763 
Rotational constants in MHz :             0.000000          9946.005082          9946.005082 

Dipole components along the rotational axes: 
x,y,z [a.u.] :    -0.458617    -0.000000    -0.000000 
x,y,z [Debye]:    -1.165713    -0.000000    -0.000000 

 

Dipole moment calculation done in   0.1 sec 

-------------------
ELECTRONIC G-MATRIX
-------------------

Method             : SCF
Type of density    : Spin Density
Type of derivative : Magnetic Field (no GIAOs) (Direction=X)
Multiplicity       :   3
Irrep              :   0
Relativity type    : 
Basis              : AO
The g-matrix: 
              2.0023298   -0.0000000    0.0000000
             -0.0000000    2.0570749    0.0000000
              0.0000000   -0.0000000    2.0570749
DSO contribution to g-matrix:
              0.0002498    0.0000000    0.0000000
              0.0000000    0.0004596    0.0000000
              0.0000000    0.0000000    0.0004596
PSO contribution to g-matrix:
              0.0000000   -0.0000000    0.0000000
             -0.0000000    0.0545352    0.0000000
              0.0000000   -0.0000000    0.0545352

Breakdown of the contributions
 gel          2.0023193    2.0023193    2.0023193
 gRMC        -0.0002393   -0.0002393   -0.0002393
 gDSO(1el)    0.0002636    0.0004139    0.0004139
 gDSO(2el)   -0.0000137    0.0000457    0.0000457
 gDSO(tot)    0.0002498    0.0004596    0.0004596
 gPSO(1el)    0.0000000    0.0581550    0.0581550
 gPSO(2el)   -0.0000000   -0.0036198   -0.0036198
 gPSO(tot)    0.0000000    0.0545352    0.0545352
             ----------   ----------   ----------
 g(tot)       2.0023298    2.0570749    2.0570749 iso=  2.0388265
 Delta-g      0.0000105    0.0547556    0.0547556 iso=  0.0365072

 Orientation: 
  X          -1.0000000   -0.0000000   -0.0000000
  Y          -0.0000000    0.9999947    0.0032500
  Z           0.0000000    0.0032500   -0.9999947

Notes:  (1) The g-matrix conforms to the "BgS" spin Hamiltonian convention. 
        (2) The principal values are square roots of the eigenvalues of g*gT.
        (3) Orientations are eigenvectors of g*gT written as column vectors.
        (4) Individual contributions are projections of the full matrices onto the eigenvectors of g*gT.
        (5) Tensor is right-handed.

-------------------------------
G-TENSOR ATOM AND BOND ANALYSIS
-------------------------------

 NOTE: We project onto the eigenvectors of the total g-matrix
       that means that contributions do not necessarily add up to the final total g-values
       However, the values should be close and indicate which atoms dominantly contribute

 NOTE: We ONLY analyze the PSO term here!

 I -  0 :    0.0000000    0.0528458 *   0.0528458 *  iso=  0.0352306 *
 N -  1 :   -0.0000000    0.0016361     0.0016361    iso=  0.0010907  
           ------------- ------------- ------------- -----------------
 Total-1c    0.0000000     0.0544819     0.0544819         0.0363213
 Total-2c   -0.0000000     0.0000533     0.0000533         0.0000355
 Total       0.0000000     0.0545352     0.0545352         0.0363568

EPR g-tensor done in   0.1 sec 

Maximum memory used throughout the entire PROP-calculation: 111.0 MB

--------------------------------
SUGGESTED CITATIONS FOR THIS RUN
--------------------------------

Below you find a list of papers that are relevant to this ORCA run
We neither can nor want to force you to cite these papers, but we appreciate if you do
You receive ORCA, which is the product of decades of hard work by many enthusiastic individuals, for free
The only thing we kindly ask in return is that you cite our papers,
We deeply appreciate it, if you show your appreciation for ORCA by not just citing the generic ORCA reference.

Please note that relegating all ORCA citations to the supporting information does *not* help us.
SI sections are not indexed - citations you put there will not count into any citation statistics
But we need these citations in order to attract the funding resources that allow us to do what we are doing

Therefore, if you are a happy ORCA user, please consider citing a few of the papers listed below in the main body of your paper

In addition to the list printed below, the program has created the file ni_cpks.bibtex that contains the list in bibtex format
You can import this file easily into all common literature databanks and citation aid programs


List of essential papers. We consider these as the minimum necessary citations

  1. Neese,F.
     Software update: the ORCA program system, version 5.0
     WIRES Comput. Molec. Sci., 2022 12(1)e1606
     doi.org/10.1002/wcms.1606

List of papers to cite with high priority. The work reported in these papers was absolutely
necessary for this run to complete.
Our perspective: the developers of density functionals and basis sets usually get cited in chemistry papers
Good! But without the algorithms to do something with them, the functionals or basis sets would not do anything.
Hence, in our opinion, the algorithm design and method developments papers are equally worthy of getting cited

  1. Neese,F.
     Prediction of electron paramagnetic resonance g values using coupled perturbed Hartree-Fock and Kohn-Sham theory
     J. Chem. Phys., 2001 115(24)11080-11096
     doi.org/10.1063/1.1419058
  2. Neese,F.
     Efficient and accurate approximations to the molecular spin-orbit coupling operator and their use in molecular g-tensor calculations
     J. Chem. Phys., 2005 122(3)Art. No. 034107
     doi.org/10.1063/1.1829047
  3. Neese,F.
     The SHARK Integral Generation and Digestion System
     J. Comp. Chem., 2022  1-16
     doi.org/10.1002/jcc.26942

List of suggested additional citations. These are papers that are important in the 'surrounding' of 
of this run, or papers that preceded the highly important papers. If you like your results we are grateful for a citation.

  1. Neese,F.
     The ORCA program system
     WIRES Comput. Molec. Sci., 2012 2(1)73-78
     doi.org/10.1002/wcms.81
  2. Neese,F.
     Software update: the ORCA program system, version 4.0
     WIRES Comput. Molec. Sci., 2018 8(1)1-6
     doi.org/10.1002/wcms.1327
  3. Neese,F.; Wennmohs,F.; Becker,U.; Riplinger,C.
     The ORCA quantum chemistry program package
     J. Chem. Phys., 2020 152 Art. No. L224108
     doi.org/10.1063/5.0004608

List of optional additional citations

  1. Neese,F.
     Approximate second-order SCF convergence for spin unrestricted wavefunctions
     Chem. Phys. Lett., 2000 325(1-3)93-98
     doi.org/10.1016/s0009-2614(00)00662-x

Timings for individual modules:

Sum of individual times          ...      737.211 sec (=  12.287 min)
Startup calculation              ...        2.925 sec (=   0.049 min)   0.4 %
SCF iterations                   ...      485.258 sec (=   8.088 min)  65.8 %
Property integrals               ...      144.291 sec (=   2.405 min)  19.6 %
SCF Response                     ...      104.323 sec (=   1.739 min)  14.2 %
Property calculations            ...        0.415 sec (=   0.007 min)   0.1 %
                             ****ORCA TERMINATED NORMALLY****
TOTAL RUN TIME: 0 days 0 hours 12 minutes 17 seconds 473 msec
