
                                 *****************
                                 * O   R   C   A *
                                 *****************

                                            #,                                       
                                            ###                                      
                                            ####                                     
                                            #####                                    
                                            ######                                   
                                           ########,                                 
                                     ,,################,,,,,                         
                               ,,#################################,,                 
                          ,,##########################################,,             
                       ,#########################################, ''#####,          
                    ,#############################################,,   '####,        
                  ,##################################################,,,,####,       
                ,###########''''           ''''###############################       
              ,#####''   ,,,,##########,,,,          '''####'''          '####       
            ,##' ,,,,###########################,,,                        '##       
           ' ,,###''''                  '''############,,,                           
         ,,##''                                '''############,,,,        ,,,,,,###''
      ,#''                                            '''#######################'''  
     '                                                          ''''####''''         
             ,#######,   #######,   ,#######,      ##                                
            ,#'     '#,  ##    ##  ,#'     '#,    #''#        ,####,   ,####,        
            ##       ##  ##   ,#'  ##            #'  '#       #'       #'  '#        
            ##       ##  #######   ##           ,######,      #####,   #    #        
            '#,     ,#'  ##    ##  '#,     ,#' ,#      #,     #,   #   #,  ,#        
             '#######'   ##     ##  '#######'  #'      '#     '####' # '####'        



                #########################################################
                #                        -***-                          #
                #          Department of theory and spectroscopy        #
                #                                                       #
                #                      Frank Neese                      #
                #                                                       #
                #     Directorship, Architecture, Infrastructure        #
                #                    SHARK, DRIVERS                     #
                #        Core code/Algorithms in most modules           #
                #                                                       #
                #        Max Planck Institute fuer Kohlenforschung      #
                #                Kaiser Wilhelm Platz 1                 #
                #                 D-45470 Muelheim/Ruhr                 #
                #                      Germany                          #
                #                                                       #
                #                  All rights reserved                  #
                #                        -***-                          #
                #########################################################


                         Program Version 6.0.0  -   RELEASE  -


 With contributions from (in alphabetic order):
   Daniel Aravena         : Magnetic Suceptibility
   Michael Atanasov       : Ab Initio Ligand Field Theory (pilot matlab implementation)
   Alexander A. Auer      : GIAO ZORA, VPT2 properties, NMR spectrum
   Ute Becker             : All parallelization in ORCA, NUMFREQ, NUMCALC
   Giovanni Bistoni       : ED, misc. LED, open-shell LED, HFLD
   Martin Brehm           : Molecular dynamics
   Dmytro Bykov           : pre 5.0 version of the SCF Hessian
   Marcos Casanova-Páez   : Triplet and SCS-CIS(D). UHF-(DLPNO)-IP/EA/STEOM-CCSD. UHF-CVS-IP/STEOM-CCSD
   Vijay G. Chilkuri      : MRCI spin determinant printing, contributions to CSF-ICE
   Pauline Colinet        : FMM embedding
   Dipayan Datta          : RHF DLPNO-CCSD density
   Achintya Kumar Dutta   : EOM-CC, STEOM-CC
   Nicolas Foglia         : Exact transition moments, OPA infrastructure, MCD improvements
   Dmitry Ganyushin       : Spin-Orbit,Spin-Spin,Magnetic field MRCI
   Miquel Garcia          : C-PCM and meta-GGA Hessian, CCSD/C-PCM, Gaussian charge scheme
   Tiago L. C. Gouveia    : GS-ROHF, GS-ROCIS
   Yang Guo               : DLPNO-NEVPT2, F12-NEVPT2, CIM, IAO-localization
   Andreas Hansen         : Spin unrestricted coupled pair/coupled cluster methods
   Ingolf Harden          : AUTO-CI MPn and infrastructure 
   Benjamin Helmich-Paris : MC-RPA, TRAH-(SCF,CASSCF), AVAS, COSX integrals, SCF dyn. polar.
   Lee Huntington         : MR-EOM, pCC
   Robert Izsak           : Overlap fitted RIJCOSX, COSX-SCS-MP3, EOM
   Riya Kayal             : Wick's Theorem for AUTO-CI, AUTO-CI UHF-CCSDT
   Emily Kempfer          : AUTO-CI, RHF CISDT and CCSDT
   Christian Kollmar      : KDIIS, OOCD, Brueckner-CCSD(T), CCSD density, CASPT2, CASPT2-K, improved NEVPT2
   Axel Koslowski         : Symmetry handling
   Simone Kossmann        : Meta GGA functionals, TD-DFT gradient, OOMP2, (MP2 Hessian; deprecated post 5.0)
   Lucas Lang             : DCDCAS
   Marvin Lechner         : AUTO-CI (C++ implementation), FIC-MRCC
   Spencer Leger          : CASSCF response
   Dagmar Lenk            : GEPOL surface, SMD, ORCA-2-JSON
   Dimitrios Liakos       : Extrapolation schemes; Compound Job, initial MDCI parallelization
   Dimitrios Manganas     : Further ROCIS development; embedding schemes. LFT, Crystal Embedding
   Dimitrios Pantazis     : SARC Basis sets
   Anastasios Papadopoulos: AUTO-CI, single reference methods and gradients
   Taras Petrenko         : pre 6.0 DFT Hessian and TD-DFT gradient, (ASA, deprecated), ECA, 1-Electron XAS/XES, NRVS
   Peter Pinski           : DLPNO-MP2, DLPNO-MP2 Gradient
   Christoph Reimann      : Effective Core Potentials
   Marius Retegan         : Local ZFS, SOC
   Christoph Riplinger    : Optimizer, TS searches, QM/MM, DLPNO-CCSD(T), (RO)-DLPNO pert. Triples
   Michael Roemelt        : Original ROCIS implementation
   Masaaki Saitow         : Open-shell DLPNO-CCSD energy and density
   Barbara Sandhoefer     : DKH picture change effects
   Kantharuban Sivalingam : CASSCF convergence/infrastructure, NEVPT2 and variants, FIC-MRCI
   Bernardo de Souza      : ESD, SOC TD-DFT
   Georgi Stoychev        : AutoAux, RI-MP2 NMR, DLPNO-MP2 response, X2C
   Van Anh Tran           : RI-MP2 g-tensors
   Willem Van den Heuvel  : Paramagnetic NMR
   Zikuan Wang            : NOTCH, Electric field optimization 
   Frank Wennmohs         : Technical directorship and infrastructure
   Hang Xu                : AUTO-CI-Response properties 


 We gratefully acknowledge several colleagues who have allowed us to
 interface, adapt or use parts of their codes:
   Stefan Grimme, W. Hujo, H. Kruse, P. Pracht,  : VdW corrections, initial TS optimization,
                  C. Bannwarth, S. Ehlert,         DFT functionals, gCP, sTDA/sTD-DF
                  L. Wittmann, M. Mueller
   Ed Valeev, F. Pavosevic, A. Kumar             : LibInt (2-el integral package), F12 methods
   Garnet Chan, S. Sharma, J. Yang, R. Olivares  : DMRG
   Ulf Ekstrom                                   : XCFun DFT Library
   Mihaly Kallay                                 : mrcc  (arbitrary order and MRCC methods)
   Frank Weinhold                                : gennbo (NPA and NBO analysis)
   Simon Mueller                                 : openCOSMO-RS
   Christopher J. Cramer and Donald G. Truhlar   : smd solvation model
   Lars Goerigk                                  : TD-DFT with DH, B97 family of functionals
   V. Asgeirsson, H. Jonsson                     : NEB implementation
   FAccTs GmbH                                   : IRC, NEB, NEB-TS, DLPNO-Multilevel, CI-OPT
                                                   MM, QMMM, 2- and 3-layer-ONIOM, Crystal-QMMM,
                                                   LR-CPCM, SF, NACMEs, symmetry and pop. for TD-DFT,
                                                   nearIR, NL-DFT gradient (VV10), updates on ESD,
                                                   ML-optimized integration grids, MBIS, APM,
                                                   GOAT, DOCKER, SOLVATOR, interface openCOSMO-RS
   S Lehtola, MJT Oliveira, MAL Marques          : LibXC Library
   Liviu Ungur et al                             : ANISO software


 Your calculation uses the libint2 library for the computation of 2-el integrals
 For citations please refer to: http://libint.valeyev.net

 Your ORCA version has been built with support for libXC version: 6.2.2
 For citations please refer to: https://libxc.gitlab.io

 This ORCA versions uses:
   CBLAS   interface :  Fast vector & matrix operations
   LAPACKE interface :  Fast linear algebra routines
   SCALAPACK package :  Parallel linear algebra routines
   Shared memory     :  Shared parallel matrices
   BLAS/LAPACK       :  OpenBLAS 0.3.27  USE64BITINT DYNAMIC_ARCH NO_AFFINITY SkylakeX SINGLE_THREADED
        Core in use  :  SkylakeX
   Copyright (c) 2011-2014, The OpenBLAS Project




************************************
The Z-Matrix will be read from file: pdh.gzmt
************************************


BuildBasisSet found the ANOflag in the standard basis to be TRUE and will set the global ANO flag
================================================================================

----- Orbital basis set information -----
Your calculation utilizes the basis: ANO-RCC-TZP
   H, He:       P.-O. Widmark, P.-A. Malmqvist, and B. O. Roos, Theor. Chim. Acta 77, 291 (1990).
   s block:     B. O. Roos, V. Veryazov and P.-O. Widmark, Theor. Chem. Acc. 111, 345 (2004).
   p block:     B. O. Roos, R. Lindh, P.-A. Malmqvist, V. Veryazov, and P.-O. Widmark, J. Phys. Chem. A 108, 2851 (2004).
   d block:     B. O. Roos, R. Lindh, P.-A. Malmqvist, V. Veryazov, and P.-O. Widmark, J. Phys. Chem. A 109, 6575 (2005).
   actinides:   B. O. Roos, R. Lindh, P.-A. Malmqvist, V. Veryazov, and P.-O. Widmark, Chem. Phys. Letters 409, 295 (2005).
   lanthanides: B. O. Roos, R. Lindh, P.-A. Malmqvist, V. Veryazov, P.-O. Widmark and A. C. Borin, J. Phys. Chem. A 112, 11431 (2008).

================================================================================
                                        WARNINGS
                       Please study these warnings very carefully!
================================================================================


WARNING: your system is open-shell and RHF/RKS was chosen
  ===> : WILL SWITCH to UHF/UKS


================================================================================
                                       INPUT FILE
================================================================================
NAME = pdh_cpks.inp
|  1> !B3LYP ANO-RCC-TZP SOMF(1X) LARGEPRINT PrintMOs
|  2> 
|  3> %METHOD
|  4>  Functional B3LYP_G
|  5>  RI false
|  6> END
|  7> 
|  8> %SCF
|  9>  MaxIter 500			# Max. no. of SCF iterations
| 10>  Thresh 1e-12			# Threshold for neglecting integrals
| 11>  TolE 1e-8			# Energy convergence threshold
| 12> END
| 13> 
| 14> %EPRNMR 			# Control of EPR and NMR calculations
| 15>  gtensor 1			# Calculate the g-tensor 
| 16>  ori CenterOfNucCharge		# origin for magnetic properties: CenterOfElCharge, CenterOfNucCharge
| 17>  printlevel 4			# detailed information
| 18> END
| 19> 
| 20> * gzmtfile 0 2 pdh.gzmt 	# Coordinates
| 21> 
| 22> 
| 23>                          ****END OF INPUT****
================================================================================

                       ****************************
                       * Single Point Calculation *
                       ****************************

---------------------------------
CARTESIAN COORDINATES (ANGSTROEM)
---------------------------------
  H      0.000000    0.000000    0.000000
  Pd     1.529000    0.000000    0.000000

----------------------------
CARTESIAN COORDINATES (A.U.)
----------------------------
  NO LB      ZA    FRAG     MASS         X           Y           Z
   0 H     1.0000    0     1.008    0.000000    0.000000    0.000000
   1 Pd   46.0000    0   106.400    2.889391    0.000000    0.000000

--------------------------------
INTERNAL COORDINATES (ANGSTROEM)
--------------------------------
 H      0   0   0     0.000000000000     0.00000000     0.00000000
 Pd     1   0   0     1.529000000000     0.00000000     0.00000000

---------------------------
INTERNAL COORDINATES (A.U.)
---------------------------
 H      0   0   0     0.000000000000     0.00000000     0.00000000
 Pd     1   0   0     2.889391258766     0.00000000     0.00000000

---------------------
BASIS SET INFORMATION
---------------------
There are 2 groups of distinct atoms

 Group   1 Type H   : 32s12p6d contracted to 4s3p2d pattern {8888/444/33}
 Group   2 Type Pd  : 147s108p52d12f4g contracted to 7s6p4d2f1g pattern {21212121212121/181818181818/13131313/66/4}

Atom   0H    basis set group =>   1
Atom   1Pd   basis set group =>   2

-------------------------
BASIS SET IN INPUT FORMAT
-------------------------

 # Basis set for element : H 
 NewGTO H 
 S 8 
   1     188.6144500000      0.0009638500
   2      28.2765960000      0.0074919600
   3       6.4248300000      0.0375954101
   4       1.8150410000      0.1433949804
   5       0.5910630000      0.3486363010
   6       0.2121490000      0.4382973612
   7       0.0798910000      0.1651066105
   8       0.0279620000      0.0210228701
 S 8 
   1     188.6144500000     -0.0013119000
   2      28.2765960000     -0.0103451000
   3       6.4248300000     -0.0504952998
   4       1.8150410000     -0.2073854991
   5       0.5910630000     -0.4350884981
   6       0.2121490000     -0.0247296999
   7       0.0798910000      0.3225259886
   8       0.0279620000      0.7072753770
 S 8 
   1     188.6144500000      0.0024224000
   2      28.2765960000      0.0203381700
   3       6.4248300000      0.0896393498
   4       1.8150410000      0.4422907090
   5       0.5910630000      0.5757143887
   6       0.2121490000     -0.9802889977
   7       0.0798910000     -0.6721537984
   8       0.0279620000      1.1417684974
 S 8 
   1     188.6144500000     -0.0115701006
   2      28.2765960000     -0.0837154045
   3       6.4248300000     -0.4451663240
   4       1.8150410000     -1.1462710617
   5       0.5910630000      2.5031872348
   6       0.2121490000     -1.5828490853
   7       0.0798910000      0.0309656917
   8       0.0279620000      0.3086286566
 P 4 
   1       2.3050000000      0.1127901896
   2       0.8067500000      0.4185075284
   3       0.2823620000      0.4700077282
   4       0.0988270000      0.1826260293
 P 4 
   1       2.3050000000     -0.2108687968
   2       0.8067500000     -0.5943795909
   3       0.2823620000      0.0896888786
   4       0.0988270000      0.8611633869
 P 4 
   1       2.3050000000      0.7599500731
   2       0.8067500000      0.1646158920
   3       0.2823620000     -1.3710139334
   4       0.0988270000      1.0593154486
 D 3 
   1       1.8190000000      0.2705134090
   2       0.7276000000      0.5510124980
   3       0.2910400000      0.3310866388
 D 3 
   1       1.8190000000     -0.7938035094
   2       0.7276000000     -0.0914252011
   3       0.2910400000      0.8620033502
  end;

 # Basis set for element : Pd
 NewGTO Pd
 S 21 
   1  25334367.1000000015      0.0002341100
   2  3578951.8599999999      0.0006830100
   3  726332.6440000000      0.0019294900
   4  181170.3860000000      0.0049422600
   5   52448.7218000000      0.0122618501
   6   17003.8928000000      0.0300598902
   7    6024.2552500000      0.0730882906
   8    2287.0083300000      0.1676216014
   9     915.2931590000      0.3181207526
  10     382.2170780000      0.3802601931
  11     164.3893620000      0.1761582714
  12      69.9129300000      0.0090203501
  13      31.6460666000      0.0025002200
  14      14.5425026000     -0.0018670600
  15       6.6982386300      0.0011255300
  16       3.0056110500     -0.0006385400
  17       1.2864031700      0.0003103100
  18       0.5001160300     -0.0001279700
  19       0.1699670400      0.0000494300
  20       0.0480105700     -0.0000212700
  21       0.0192042300      0.0000082000
 S 21 
   1  25334367.1000000015     -0.0000790500
   2  3578951.8599999999     -0.0002309700
   3  726332.6440000000     -0.0006539600
   4  181170.3860000000     -0.0016837400
   5   52448.7218000000     -0.0042105400
   6   17003.8928000000     -0.0105051900
   7    6024.2552500000     -0.0263048800
   8    2287.0083300000     -0.0646086899
   9     915.2931590000     -0.1406167998
  10     382.2170780000     -0.2252726698
  11     164.3893620000     -0.0991884799
  12      69.9129300000      0.4620011495
  13      31.6460666000      0.5948972994
  14      14.5425026000      0.1166714199
  15       6.6982386300      0.0068033400
  16       3.0056110500     -0.0024474500
  17       1.2864031700      0.0012207300
  18       0.5001160300     -0.0006187100
  19       0.1699670400      0.0002362200
  20       0.0480105700     -0.0001033900
  21       0.0192042300      0.0000399500
 S 21 
   1  25334367.1000000015      0.0000342200
   2  3578951.8599999999      0.0001000000
   3  726332.6440000000      0.0002832300
   4  181170.3860000000      0.0007297200
   5   52448.7218000000      0.0018270400
   6   17003.8928000000      0.0045689000
   7    6024.2552500000      0.0114922200
   8    2287.0083300000      0.0284947199
   9     915.2931590000      0.0633554099
  10     382.2170780000      0.1061946998
  11     164.3893620000      0.0494064299
  12      69.9129300000     -0.3193266193
  13      31.6460666000     -0.6137739387
  14      14.5425026000      0.1531154697
  15       6.6982386300      0.9105938880
  16       3.0056110500      0.2529558095
  17       1.2864031700     -0.0043186200
  18       0.5001160300      0.0042640300
  19       0.1699670400     -0.0012344600
  20       0.0480105700      0.0005264400
  21       0.0192042300     -0.0002023100
 S 21 
   1  25334367.1000000015     -0.0000141300
   2  3578951.8599999999     -0.0000412900
   3  726332.6440000000     -0.0001169900
   4  181170.3860000000     -0.0003012500
   5   52448.7218000000     -0.0007554100
   6   17003.8928000000     -0.0018854700
   7    6024.2552500000     -0.0047646800
   8    2287.0083300000     -0.0117699399
   9     915.2931590000     -0.0264906899
  10     382.2170780000     -0.0442046798
  11     164.3893620000     -0.0220986699
  12      69.9129300000      0.1479410593
  13      31.6460666000      0.2931280786
  14      14.5425026000     -0.0719576197
  15       6.6982386300     -0.8486477960
  16       3.0056110500     -0.1622284292
  17       1.2864031700      1.0043533052
  18       0.5001160300      0.3610039583
  19       0.1699670400     -0.0080403100
  20       0.0480105700      0.0062378500
  21       0.0192042300     -0.0023786600
 S 21 
   1  25334367.1000000015      0.0000027900
   2  3578951.8599999999      0.0000081600
   3  726332.6440000000      0.0000231300
   4  181170.3860000000      0.0000595300
   5   52448.7218000000      0.0001495000
   6   17003.8928000000      0.0003722200
   7    6024.2552500000      0.0009446100
   8    2287.0083300000      0.0023201700
   9     915.2931590000      0.0052701300
  10     382.2170780000      0.0086837200
  11     164.3893620000      0.0046082700
  12      69.9129300000     -0.0303046899
  13      31.6460666000     -0.0579333699
  14      14.5425026000      0.0110671900
  15       6.6982386300      0.1992239695
  16       3.0056110500      0.0173703600
  17       1.2864031700     -0.2896277593
  18       0.5001160300     -0.2508105794
  19       0.1699670400      0.3574007891
  20       0.0480105700      0.3405211591
  21       0.0192042300      0.5486115286
 S 21 
   1  25334367.1000000015     -0.0000033700
   2  3578951.8599999999     -0.0000098500
   3  726332.6440000000     -0.0000279300
   4  181170.3860000000     -0.0000718800
   5   52448.7218000000     -0.0001804100
   6   17003.8928000000     -0.0004496900
   7    6024.2552500000     -0.0011391800
   8    2287.0083300000     -0.0028054400
   9     915.2931590000     -0.0063495000
  10     382.2170780000     -0.0105260200
  11     164.3893620000     -0.0054584200
  12      69.9129300000      0.0362745001
  13      31.6460666000      0.0713399902
  14      14.5425026000     -0.0163711900
  15       6.6982386300     -0.2361347906
  16       3.0056110500     -0.0514922501
  17       1.2864031700      0.4752751313
  18       0.5001160300      0.1210183703
  19       0.1699670400     -0.4321334212
  20       0.0480105700     -1.4348941239
  21       0.0192042300      1.7010980047
 S 21 
   1  25334367.1000000015      0.0000103000
   2  3578951.8599999999      0.0000300400
   3  726332.6440000000      0.0000854400
   4  181170.3860000000      0.0002182300
   5   52448.7218000000      0.0005560300
   6   17003.8928000000      0.0013494200
   7    6024.2552500000      0.0035644900
   8    2287.0083300000      0.0082576200
   9     915.2931590000      0.0203690900
  10     382.2170780000      0.0292089600
  11     164.3893620000      0.0248420000
  12      69.9129300000     -0.1333775799
  13      31.6460666000     -0.1661942899
  14      14.5425026000     -0.0792652900
  15       6.6982386300      1.0397306895
  16       3.0056110500     -0.1768483199
  17       1.2864031700     -2.1227259190
  18       0.5001160300      1.9282934691
  19       0.1699670400      0.5000046198
  20       0.0480105700     -1.7397074292
  21       0.0192042300      1.0165532295
 P 18 
   1  722403.9500000000      0.0000349500
   2  105149.8760000000      0.0001534700
   3   23007.4386000000      0.0006438300
   4    6505.2995500000      0.0026249300
   5    2214.9069100000      0.0101857101
   6     859.1977030000      0.0358308103
   7     365.5538590000      0.1062331208
   8     166.1684240000      0.2424059718
   9      79.0263174000      0.3755476828
  10      38.7316401000      0.3134223223
  11      18.9008763000      0.0982562107
  12       9.2959473800      0.0049550600
  13       4.6247971400      0.0013223700
  14       2.1015494700     -0.0005484200
  15       0.9372332000      0.0001968000
  16       0.3783300900     -0.0001148300
  17       0.1513320300      0.0000448900
  18       0.0605328100     -0.0000149000
 P 18 
   1  722403.9500000000     -0.0000157200
   2  105149.8760000000     -0.0000691000
   3   23007.4386000000     -0.0002906700
   4    6505.2995500000     -0.0011887800
   5    2214.9069100000     -0.0046519300
   6     859.1977030000     -0.0165934200
   7     365.5538590000     -0.0508008899
   8     166.1684240000     -0.1214348497
   9      79.0263174000     -0.2008076895
  10      38.7316401000     -0.1337035797
  11      18.9008763000      0.2269329094
  12       9.2959473800      0.5491348886
  13       4.6247971400      0.3328845392
  14       2.1015494700      0.0421756799
  15       0.9372332000     -0.0004755100
  16       0.3783300900      0.0008581000
  17       0.1513320300     -0.0002440000
  18       0.0605328100      0.0000799400
 P 18 
   1  722403.9500000000      0.0000061100
   2  105149.8760000000      0.0000268500
   3   23007.4386000000      0.0001132400
   4    6505.2995500000      0.0004617600
   5    2214.9069100000      0.0018183700
   6     859.1977030000      0.0064651200
   7     365.5538590000      0.0200415199
   8     166.1684240000      0.0479237898
   9      79.0263174000      0.0813926197
  10      38.7316401000      0.0482680798
  11      18.9008763000     -0.1199467296
  12       9.2959473800     -0.3296016789
  13       4.6247971400     -0.1495263795
  14       2.1015494700      0.4654538584
  15       0.9372332000      0.5743436180
  16       0.3783300900      0.1665100794
  17       0.1513320300     -0.0006383900
  18       0.0605328100      0.0028338600
 P 18 
   1  722403.9500000000     -0.0000044600
   2  105149.8760000000     -0.0000196100
   3   23007.4386000000     -0.0000826400
   4    6505.2995500000     -0.0003375800
   5    2214.9069100000     -0.0013268500
   6     859.1977030000     -0.0047362400
   7     365.5538590000     -0.0146630899
   8     166.1684240000     -0.0353283398
   9      79.0263174000     -0.0598406497
  10      38.7316401000     -0.0349572198
  11      18.9008763000      0.1058429095
  12       9.2959473800      0.2465368288
  13       4.6247971400      0.1145259094
  14       2.1015494700     -0.7077970766
  15       0.9372332000     -0.1857542891
  16       0.3783300900      0.6365476269
  17       0.1513320300      0.4179744880
  18       0.0605328100      0.1330331494
 P 18 
   1  722403.9500000000      0.0000067200
   2  105149.8760000000      0.0000293300
   3   23007.4386000000      0.0001256100
   4    6505.2995500000      0.0005002600
   5    2214.9069100000      0.0020354800
   6     859.1977030000      0.0069891900
   7     365.5538590000      0.0227304499
   8     166.1684240000      0.0519875897
   9      79.0263174000      0.0955251495
  10      38.7316401000      0.0380646298
  11      18.9008763000     -0.1699378291
  12       9.2959473800     -0.4123531978
  13       4.6247971400     -0.0121349799
  14       2.1015494700      1.4590327623
  15       0.9372332000     -1.0985800642
  16       0.3783300900     -0.5528118471
  17       0.1513320300      0.6711771564
  18       0.0605328100      0.3684356980
 P 18 
   1  722403.9500000000     -0.0000079600
   2  105149.8760000000     -0.0000334000
   3   23007.4386000000     -0.0001561000
   4    6505.2995500000     -0.0005355100
   5    2214.9069100000     -0.0026482100
   6     859.1977030000     -0.0071941700
   7     365.5538590000     -0.0306449099
   8     166.1684240000     -0.0504449099
   9      79.0263174000     -0.1454133297
  10      38.7316401000      0.0420722999
  11      18.9008763000      0.0726209098
  12       9.2959473800      0.8824580879
  13       4.6247971400     -1.0191506276
  14       2.1015494700     -0.7984163981
  15       0.9372332000      2.1418378549
  16       0.3783300900     -1.5575500363
  17       0.1513320300     -0.1426339197
  18       0.0605328100      0.8708591179
 D 13 
   1     915.2931590000      0.0011940800
   2     382.2170780000      0.0044175400
   3     164.3893620000      0.0252214401
   4      69.9129300000      0.0953421303
   5      31.6460666000      0.2437202508
   6      14.5425026000      0.4004713013
   7       6.6982386300      0.3552665012
   8       3.0056110500      0.1136787104
   9       1.2864031700      0.0091612000
  10       0.5001160300      0.0043672700
  11       0.1699670400      0.0013258100
  12       0.0679868200      0.0004153700
  13       0.0271947200      0.0000107500
 D 13 
   1     915.2931590000     -0.0003728000
   2     382.2170780000     -0.0013865400
   3     164.3893620000     -0.0079398500
   4      69.9129300000     -0.0304155699
   5      31.6460666000     -0.0783825998
   6      14.5425026000     -0.1246603497
   7       6.6982386300     -0.0784044098
   8       3.0056110500      0.1814286295
   9       1.2864031700      0.4249104988
  10       0.5001160300      0.4182508589
  11       0.1699670400      0.2236430994
  12       0.0679868200      0.0294849099
  13       0.0271947200      0.0117338100
 D 13 
   1     915.2931590000      0.0004108600
   2     382.2170780000      0.0014014500
   3     164.3893620000      0.0086774399
   4      69.9129300000      0.0316603698
   5      31.6460666000      0.0861856395
   6      14.5425026000      0.1243843192
   7       6.6982386300      0.0903910794
   8       3.0056110500     -0.2962417082
   9       1.2864031700     -0.5267437668
  10       0.5001160300      0.2305715786
  11       0.1699670400      0.5797474065
  12       0.0679868200      0.1984662988
  13       0.0271947200      0.0569597197
 D 13 
   1     915.2931590000     -0.0005460600
   2     382.2170780000     -0.0013329600
   3     164.3893620000     -0.0111877300
   4      69.9129300000     -0.0336674901
   5      31.6460666000     -0.1120894104
   6      14.5425026000     -0.1179805404
   7       6.6982386300     -0.1544110105
   8       3.0056110500      0.6616151121
   9       1.2864031700      0.1648966005
  10       0.5001160300     -0.9175801429
  11       0.1699670400      0.2344077807
  12       0.0679868200      0.5206348017
  13       0.0271947200      0.1265830904
 F 6 
   1       8.1606810000      0.0147879201
   2       3.2642730000      0.1865509708
   3       1.3057090000      0.5320590722
   4       0.5222830000      0.3915145517
   5       0.2089130000      0.1198922105
   6       0.0835650000      0.0149059501
 F 6 
   1       8.1606810000     -0.0678173203
   2       3.2642730000      0.4772067521
   3       1.3057090000      0.4940727821
   4       0.5222830000     -0.6591652428
   5       0.2089130000     -0.3336890414
   6       0.0835650000     -0.0770419303
 G 4 
   1       4.2691550000      0.0846147203
   2       1.7076620000      0.6201520320
   3       0.6830640000      0.4232532914
   4       0.2732260000      0.0813465703
  end;

------------------------------------------------------------------------------
                             ORCA STARTUP CALCULATIONS
------------------------------------------------------------------------------
------------------------------------------------------------------------------
                   ___                                                        
                  /   \      - P O W E R E D   B Y -                         
                 /     \                                                     
                 |  |  |   _    _      __       _____    __    __             
                 |  |  |  | |  | |    /  \     |  _  \  |  |  /  |          
                  \  \/   | |  | |   /    \    | | | |  |  | /  /          
                 / \  \   | |__| |  /  /\  \   | |_| |  |  |/  /          
                |  |  |   |  __  | /  /__\  \  |    /   |      \           
                |  |  |   | |  | | |   __   |  |    \   |  |\   \          
                \     /   | |  | | |  |  |  |  | |\  \  |  | \   \       
                 \___/    |_|  |_| |__|  |__|  |_| \__\ |__|  \__/        
                                                                              
                      - O R C A' S   B I G   F R I E N D -                    
                                      &                                       
                       - I N T E G R A L  F E E D E R -                       
                                                                              
 v1 FN, 2020, v2 2021, v3 2022-2024                                           
------------------------------------------------------------------------------


----------------------
SHARK INTEGRAL PACKAGE
----------------------

Number of atoms                             ...      2
Number of basis functions                   ...     91
Number of shells                            ...     29
Maximum angular momentum                    ...      4
Integral batch strategy                     ... SHARK/LIBINT Hybrid
RI-J (if used) integral strategy            ... SPLIT-RIJ (Revised 2003 algorithm where possible)
Printlevel                                  ...      1
Contraction scheme used                     ... GENERAL contraction
Prescreening option                         ... SCHWARTZ
   Thresh                                   ... 1.000e-12
   Tcut                                     ... 1.000e-11
   Tpresel                                  ... 1.000e-11 
Coulomb Range Separation                    ... NOT USED
Exchange Range Separation                   ... NOT USED
Multipole approximations                    ... NOT USED
Finite Nucleus Model                        ... NOT USED
CABS basis                                  ... NOT available
Auxiliary Coulomb fitting basis             ... NOT available
Auxiliary J/K fitting basis                 ... NOT available
Auxiliary Correlation fitting basis         ... NOT available
Auxiliary 'external' fitting basis          ... NOT available

Checking pre-screening integrals            ... done (  0.0 sec) Dimension = 29
Calculate PGC pre-screening integrals       ... done (  0.1 sec) Dimension = 74
Calculate PGC overlap integrals             ... done (  0.2 sec) Dimension = 74
Check shell pair data                       ... done (  0.0 sec)
Shell pair information
Shell pair cut-off parameter TPreSel        ...   1.0e-11
Total number of shell pairs                 ...       435
Shell pairs after pre-screening             ...         0
Total number of primitive shell pairs       ...     72623
Primitive shell pairs kept                  ...      3395

Calculating one electron integrals          ... done (  0.0 sec)
Calculating Nuclear repulsion               ... done (  0.0 sec) ENN=     15.920308424984 Eh

Diagonalization of the overlap matrix:
Smallest eigenvalue                        ... 1.714e-03
Time for diagonalization                   ...    0.001 sec
Threshold for overlap eigenvalues          ... 1.000e-07
Number of eigenvalues below threshold      ... 0
Time for construction of square roots      ...    0.001 sec
Total time needed                          ...    0.003 sec

-------------------
DFT GRID GENERATION
-------------------

General Integration Accuracy     IntAcc      ... 4.388
Radial Grid Type                 RadialGrid  ... OptM3 with GC (2021)
Angular Grid (max. ang.)         AngularGrid ... 4 (Lebedev-302)
Angular grid pruning method      GridPruning ... 4 (adaptive)
Weight generation scheme         WeightScheme... mBecke (2022)
Basis function cutoff            BFCut       ... 1.0000e-10
Integration weight cutoff        WCut        ... 1.0000e-14
Partially contracted basis set               ... off
Rotationally invariant grid construction     ... off
Angular grids for H and He will be reduced by one unit
Diffuse basis detected: some atoms will have their outermost
                        angular grid increased by 1.
Core-polarized basis detected: some atoms will have their core
                               angular grid increased.
Steep s-basis detected: some atoms will have their radial
                        grid points doubled.

Total number of grid points                  ...    31051
Total number of batches                      ...      486
Average number of points per batch           ...       63
Average number of grid points per atom       ...    15526
Initializing property integral containers    ... done (  0.0 sec)

SHARK setup successfully completed in   6.7 seconds

Maximum memory used throughout the entire STARTUP-calculation: 328.6 MB
-------------------------------------------------------------------------------
                                 ORCA GUESS
                   Start orbitals & Density for SCF / CASSCF
-------------------------------------------------------------------------------

------------
SCF SETTINGS
------------
Hamiltonian:
 Density Functional     Method          .... DFT(GTOs)
 Exchange Functional    Exchange        .... B88
   X-Alpha parameter    XAlpha          ....  0.666667
   Becke's b parameter  XBeta           ....  0.004200
 Correlation Functional Correlation     .... LYP
 LDA part of GGA corr.  LDAOpt          .... VWN-3
 Gradients option       PostSCFGGA      .... off
 Hybrid DFT is turned on
   Fraction HF Exchange ScalHFX         ....  0.200000
   Scaling of DF-GGA-X  ScalDFX         ....  0.720000
   Scaling of DF-GGA-C  ScalDFC         ....  0.810000
   Scaling of DF-LDA-C  ScalLDAC        ....  1.000000
   Perturbative correction              ....  0.000000
   NL short-range parameter             ....  4.800000


General Settings:
 Integral files         IntName         .... pdh_cpks
 Hartree-Fock type      HFTyp           .... UHF
 Total Charge           Charge          ....    0
 Multiplicity           Mult            ....    2
 Number of Electrons    NEL             ....   47
 Basis Dimension        Dim             ....   91
 Nuclear Repulsion      ENuc            ....     15.9203084250 Eh

Convergence Acceleration:
 AO-DIIS                CNVDIIS         .... on
   Start iteration      DIISMaxIt       ....    12
   Startup error        DIISStart       ....  0.200000
   # of expansion vecs  DIISMaxEq       ....     5
   Bias factor          DIISBfac        ....   1.050
   Max. coefficient     DIISMaxC        ....  10.000
 MO-DIIS                CNVKDIIS        .... off
 Trust-Rad. Augm. Hess. CNVTRAH         .... auto
   Auto Start mean grad. ratio tolernc. ....  1.125000
   Auto Start start iteration           ....    50
   Auto Start num. interpolation iter.  ....    10
   Max. Number of Micro iterations      ....    24
   Max. Number of Macro iterations      .... Maxiter - #DIIS iter
   Number of Davidson start vectors     ....     2
   Converg. threshold    (grad. norm)   ....   5.000e-05
   Grad. Scal. Fac. for Micro threshold ....   0.100
   Minimum threshold for Micro iter.    ....   1.000e-02
   NR start threshold (gradient norm)   ....   1.000e-04
   Initial trust radius                 ....   0.400
   Minimum AH scaling param. (alpha)    ....   1.000
   Maximum AH scaling param. (alpha)    .... 1000.000
   Quad. conv. algorithm                .... NR
   White noise on init. David. guess    .... on
   Maximum white noise                  ....   0.010
   Pseudo random numbers                .... off
   Inactive MOs                         .... canonical
   Orbital update algorithm             .... Taylor
   Preconditioner                       .... Diag
   Full preconditioner red. dimension   ....   250
 SOSCF                  CNVSOSCF        .... on
   Start iteration      SOSCFMaxIt      ....   150
   Startup grad/error   SOSCFStart      ....  0.003300
   Hessian update       SOSCFHessUp     .... L-BFGS
 Level Shifting         CNVShift        .... on
   Level shift para.    LevelShift      ....    0.2500
   Turn off err/grad.   ShiftErr        ....    0.0010
 Zerner damping         CNVZerner       .... off
 Static damping         CNVDamp         .... on
   Fraction old density DampFac         ....    0.7000
   Max. Damping (<1)    DampMax         ....    0.9800
   Min. Damping (>=0)   DampMin         ....    0.0000
   Turn off err/grad.   DampErr         ....    0.1000

SCF Procedure:
 Maximum # iterations   MaxIter         ....   500
 SCF integral mode      SCFMode         .... Direct
   Integral package                     .... SHARK and LIBINT hybrid scheme
 Reset frequency        DirectResetFreq ....    20
 Integral Threshold     Thresh          ....  1.000e-12 Eh
 Primitive CutOff       TCut            ....  1.000e-11 Eh

Convergence Tolerance:
 Convergence Check Mode ConvCheckMode   .... Total+1el-Energy
 Convergence forced     ConvForced      .... 0
 Energy Change          TolE            ....  1.000e-08 Eh
 1-El. energy change                    ....  1.000e-05 Eh
 Orbital Gradient       TolG            ....  5.000e-05
 Orbital Rotation angle TolX            ....  5.000e-05
 DIIS Error             TolErr          ....  1.000e-06

------------------------------
INITIAL GUESS: MODEL POTENTIAL
------------------------------
Loading Hartree-Fock densities                     ... done
Calculating cut-offs                               ... done
Initializing the effective Hamiltonian             ... done
Setting up the integral package (SHARK)            ... done
Starting the Coulomb interaction                   ... done (   0.3 sec)
Making the grid                                    ... done (   0.2 sec)
Mapping shells                                     ... done
Starting the XC term evaluation                    ... done (   0.1 sec)
  promolecular density results
     # of electrons  =     46.993053787
     EX              =   -139.507491614
     EC              =     -2.344644598
     EX+EC           =   -141.852136212
Transforming the Hamiltonian                       ... done (   0.0 sec)
Diagonalizing the Hamiltonian                      ... done (   0.0 sec)
Back transforming the eigenvectors                 ... done (   0.0 sec)
Now organizing SCF variables                       ... done
                      ------------------
                      INITIAL GUESS DONE (   0.6 sec)
                      ------------------
----------------------
INITIAL GUESS ORBITALS
----------------------
                      0         1         2         3         4         5   
                 -819.34824 -116.34970 -114.14809 -114.14721 -114.14721 -20.40545
                   1.00000   1.00000   1.00000   1.00000   1.00000   1.00000
                  --------  --------  --------  --------  --------  --------
  0H   1s         0.050946  0.157334 -0.015434  0.000000  0.000000  0.409391
  0H   2s         0.023074  0.070805 -0.014167  0.000000  0.000000  0.187026
  0H   3s        -0.011922 -0.036979  0.000593  0.000000  0.000000 -0.095083
  0H   4s        -0.001195 -0.003620  0.001122  0.000000 -0.000000 -0.009972
  0H   1pz        0.000000  0.000000  0.000000  0.000508  0.000382 -0.000000
  0H   1px        0.026782  0.083068 -0.001669 -0.000000  0.000000  0.214236
  0H   1py        0.000000  0.000000 -0.000000  0.000382 -0.000508  0.000000
  0H   2pz        0.000000  0.000000  0.000000  0.001495  0.001124 -0.000000
  0H   2px        0.011016  0.033978 -0.002496 -0.000000  0.000000  0.089283
  0H   2py        0.000000  0.000000 -0.000000  0.001124 -0.001495  0.000000
  0H   3pz        0.000000  0.000000  0.000000  0.001052  0.000791 -0.000000
  0H   3px       -0.003998 -0.012419 -0.000493  0.000000  0.000000 -0.030303
  0H   3py        0.000000 -0.000000 -0.000000  0.000791 -0.001052  0.000000
  0H   1dz2      -0.004199 -0.013049 -0.000095  0.000000  0.000000 -0.033162
  0H   1dxz       0.000000  0.000000 -0.000000 -0.000487 -0.000366  0.000000
  0H   1dyz       0.000000  0.000000  0.000000 -0.000000  0.000000  0.000000
  0H   1dx2y2     0.007273  0.022602  0.000164 -0.000000 -0.000000  0.057438
  0H   1dxy       0.000000  0.000000  0.000000 -0.000366  0.000487 -0.000000
  0H   2dz2      -0.001969 -0.006099 -0.000088 -0.000000 -0.000000 -0.015655
  0H   2dxz       0.000000  0.000000 -0.000000 -0.000238 -0.000179  0.000000
  0H   2dyz      -0.000000 -0.000000  0.000000 -0.000000  0.000000 -0.000000
  0H   2dx2y2     0.003411  0.010564  0.000152 -0.000000  0.000000  0.027116
  0H   2dxy       0.000000  0.000000  0.000000 -0.000179  0.000238 -0.000000
  1Pd  1s         0.998572  0.041249  0.000059  0.000000 -0.000000  0.016416
  1Pd  2s         0.041826 -1.002089  0.000409 -0.000000 -0.000000 -0.076976
  1Pd  3s        -0.024260 -0.088743  0.001589  0.000000 -0.000000  0.934794
  1Pd  4s        -0.018306 -0.054674  0.005678  0.000000 -0.000000 -0.123362
  1Pd  5s        -0.039230 -0.121123  0.016656  0.000000 -0.000000 -0.319790
  1Pd  6s         0.020886  0.065055 -0.001865  0.000000 -0.000000  0.170695
  1Pd  7s        -0.011365 -0.036189 -0.001111  0.000000  0.000000 -0.096475
  1Pd  1pz        0.000000  0.000000 -0.000000 -0.799257 -0.600786 -0.000000
  1Pd  1px        0.000180  0.000561 -0.999895  0.000000  0.000000  0.001463
  1Pd  1py        0.000000  0.000000  0.000000 -0.600786  0.799257 -0.000000
  1Pd  2pz       -0.000000  0.000000 -0.000000 -0.009830 -0.007389  0.000000
  1Pd  2px        0.002171  0.006730 -0.012539  0.000000  0.000000  0.016505
  1Pd  2py       -0.000000  0.000000  0.000000 -0.007389  0.009830  0.000000
  1Pd  3pz       -0.000000 -0.000000  0.000000  0.003603  0.002708  0.000000
  1Pd  3px        0.017605  0.054528  0.002291 -0.000000 -0.000000  0.140314
  1Pd  3py       -0.000000 -0.000000 -0.000000  0.002708 -0.003603 -0.000000
  1Pd  4pz       -0.000000 -0.000000 -0.000000 -0.003311 -0.002489  0.000000
  1Pd  4px        0.031234  0.096594 -0.010559  0.000000  0.000000  0.250168
  1Pd  4py       -0.000000 -0.000000  0.000000 -0.002489  0.003311 -0.000000
  1Pd  5pz       -0.000000 -0.000000  0.000000  0.003210  0.002413  0.000000
  1Pd  5px        0.010512  0.032303 -0.001032  0.000000 -0.000000  0.085133
  1Pd  5py       -0.000000 -0.000000  0.000000  0.002413 -0.003210 -0.000000
  1Pd  6pz       -0.000000  0.000000 -0.000000 -0.005393 -0.004054  0.000000
  1Pd  6px        0.001099  0.003198 -0.009845  0.000000  0.000000  0.009605
  1Pd  6py       -0.000000  0.000000  0.000000 -0.004054  0.005393 -0.000000
  1Pd  1dz2       0.000284  0.000880 -0.000020 -0.000000 -0.000000  0.002204
  1Pd  1dxz       0.000000  0.000000 -0.000000 -0.000004 -0.000003  0.000000
  1Pd  1dyz       0.000000 -0.000000 -0.000000  0.000000 -0.000000  0.000000
  1Pd  1dx2y2    -0.000491 -0.001525  0.000034  0.000000  0.000000 -0.003817
  1Pd  1dxy       0.000000 -0.000000  0.000000 -0.000003  0.000004  0.000000
  1Pd  2dz2       0.005780  0.017924 -0.000679  0.000000 -0.000000  0.045967
  1Pd  2dxz       0.000000  0.000000 -0.000000 -0.000011 -0.000008 -0.000000
  1Pd  2dyz       0.000000  0.000000 -0.000000  0.000000 -0.000000  0.000000
  1Pd  2dx2y2    -0.010011 -0.031045  0.001176  0.000000  0.000000 -0.079618
  1Pd  2dxy       0.000000  0.000000 -0.000000 -0.000008  0.000011 -0.000000
  1Pd  3dz2       0.005024  0.015535 -0.001368  0.000000 -0.000000  0.040100
  1Pd  3dxz       0.000000  0.000000  0.000000  0.000460  0.000346 -0.000000
  1Pd  3dyz       0.000000  0.000000  0.000000  0.000000 -0.000000  0.000000
  1Pd  3dx2y2    -0.008701 -0.026908  0.002369 -0.000000  0.000000 -0.069454
  1Pd  3dxy       0.000000  0.000000 -0.000000  0.000346 -0.000460  0.000000
  1Pd  4dz2      -0.000287 -0.000935 -0.001096  0.000000  0.000000 -0.001823
  1Pd  4dxz       0.000000  0.000000  0.000000  0.000840  0.000631 -0.000000
  1Pd  4dyz       0.000000  0.000000  0.000000  0.000000 -0.000000  0.000000
  1Pd  4dx2y2     0.000498  0.001619  0.001898 -0.000000  0.000000  0.003158
  1Pd  4dxy       0.000000  0.000000 -0.000000  0.000631 -0.000840  0.000000
  1Pd  1f0        0.000000  0.000000 -0.000000 -0.000134 -0.000101  0.000000
  1Pd  1f+1      -0.001992 -0.006207 -0.000042 -0.000000  0.000000 -0.015796
  1Pd  1f-1       0.000000  0.000000  0.000000 -0.000041  0.000055 -0.000000
  1Pd  1f+2      -0.000000 -0.000000  0.000000  0.000173  0.000130 -0.000000
  1Pd  1f-2      -0.000000  0.000000  0.000000 -0.000000  0.000000  0.000000
  1Pd  1f+3      -0.002571 -0.008013 -0.000054  0.000000  0.000000 -0.020392
  1Pd  1f-3       0.000000  0.000000  0.000000 -0.000159  0.000212 -0.000000
  1Pd  2f0       -0.000000 -0.000000  0.000000  0.000103  0.000077 -0.000000
  1Pd  2f+1       0.001621  0.005040 -0.000111  0.000000 -0.000000  0.012810
  1Pd  2f-1      -0.000000 -0.000000 -0.000000  0.000032 -0.000042  0.000000
  1Pd  2f+2       0.000000  0.000000 -0.000000 -0.000133 -0.000100 -0.000000
  1Pd  2f-2      -0.000000 -0.000000  0.000000  0.000000 -0.000000 -0.000000
  1Pd  2f+3       0.002093  0.006507 -0.000143  0.000000 -0.000000  0.016537
  1Pd  2f-3      -0.000000 -0.000000  0.000000  0.000122 -0.000163  0.000000
  1Pd  1g0       -0.000245 -0.000770 -0.000102 -0.000000  0.000000 -0.001868
  1Pd  1g+1      -0.000000 -0.000000  0.000000  0.000115  0.000087 -0.000000
  1Pd  1g-1       0.000000  0.000000  0.000000 -0.000000  0.000000  0.000000
  1Pd  1g+2       0.000366  0.001148  0.000152  0.000000 -0.000000  0.002783
  1Pd  1g-2      -0.000000 -0.000000 -0.000000  0.000041 -0.000054 -0.000000
  1Pd  1g+3       0.000000  0.000000  0.000000  0.000102  0.000076  0.000000
  1Pd  1g-3       0.000000  0.000000  0.000000 -0.000000  0.000000  0.000000
  1Pd  1g+4       0.000484  0.001519  0.000200 -0.000000 -0.000000  0.003682
  1Pd  1g-4      -0.000000 -0.000000 -0.000000  0.000108 -0.000144  0.000000
                      6         7         8         9        10        11   
                 -18.46385 -18.46237 -18.46237 -12.06254 -12.06233 -12.06233
                   1.00000   1.00000   1.00000   1.00000   1.00000   1.00000
                  --------  --------  --------  --------  --------  --------
  0H   1s        -0.035253  0.000000  0.000000 -0.002867  0.000000  0.000000
  0H   2s        -0.031778  0.000000  0.000000 -0.000854  0.000000 -0.000000
  0H   3s         0.001385 -0.000000 -0.000000  0.000467 -0.000000 -0.000000
  0H   4s         0.002252 -0.000000 -0.000000 -0.000151 -0.000000  0.000000
  0H   1pz        0.000000 -0.000000 -0.001711  0.000000  0.000016  0.000015
  0H   1px       -0.004239  0.000000  0.000000 -0.001908  0.000000  0.000000
  0H   1py       -0.000000  0.001711 -0.000000 -0.000000  0.000015 -0.000016
  0H   2pz        0.000000 -0.000000 -0.004413 -0.000000 -0.000447 -0.000411
  0H   2px       -0.005585 -0.000000  0.000000 -0.000743  0.000000  0.000000
  0H   2py       -0.000000  0.004413 -0.000000  0.000000 -0.000411  0.000447
  0H   3pz        0.000000 -0.000000 -0.002818 -0.000000 -0.000368 -0.000338
  0H   3px       -0.001035 -0.000000 -0.000000  0.000082 -0.000000 -0.000000
  0H   3py        0.000000  0.002818 -0.000000  0.000000 -0.000338  0.000368
  0H   1dz2      -0.000163  0.000000 -0.000000  0.000207 -0.000000 -0.000000
  0H   1dxz      -0.000000  0.000000  0.001206  0.000000  0.000305  0.000280
  0H   1dyz       0.000000 -0.000000  0.000000  0.000000  0.000000 -0.000000
  0H   1dx2y2     0.000283 -0.000000  0.000000 -0.000359  0.000000  0.000000
  0H   1dxy       0.000000 -0.001206  0.000000 -0.000000  0.000280 -0.000305
  0H   2dz2      -0.000162  0.000000 -0.000000  0.000050 -0.000000 -0.000000
  0H   2dxz      -0.000000  0.000000  0.000583  0.000000  0.000163  0.000150
  0H   2dyz       0.000000 -0.000000  0.000000  0.000000  0.000000 -0.000000
  0H   2dx2y2     0.000281 -0.000000  0.000000 -0.000086  0.000000 -0.000000
  0H   2dxy       0.000000 -0.000583  0.000000 -0.000000  0.000150 -0.000163
  1Pd  1s         0.000152 -0.000000 -0.000000  0.000019 -0.000000 -0.000000
  1Pd  2s         0.000893 -0.000000 -0.000000  0.000088 -0.000000 -0.000000
  1Pd  3s         0.004385 -0.000000 -0.000000  0.000494 -0.000000 -0.000000
  1Pd  4s         0.012985 -0.000000 -0.000000  0.001368 -0.000000 -0.000000
  1Pd  5s         0.037658 -0.000000 -0.000000  0.002008 -0.000000 -0.000000
  1Pd  6s        -0.004390  0.000000  0.000000 -0.001212  0.000000  0.000000
  1Pd  7s        -0.002302  0.000000 -0.000000  0.000404 -0.000000 -0.000000
  1Pd  1pz       -0.000000  0.000000  0.012003  0.000000 -0.000001 -0.000001
  1Pd  1px       -0.012035  0.000000 -0.000000 -0.000011  0.000000 -0.000000
  1Pd  1py       -0.000000 -0.012003  0.000000  0.000000 -0.000001  0.000001
  1Pd  2pz        0.000000 -0.000000 -0.999459 -0.000000 -0.000166 -0.000152
  1Pd  2px        0.998885 -0.000000  0.000000 -0.000398 -0.000000  0.000000
  1Pd  2py        0.000000  0.999459 -0.000000  0.000000 -0.000152  0.000166
  1Pd  3pz        0.000000 -0.000000 -0.017668  0.000000  0.000004  0.000004
  1Pd  3px        0.012563 -0.000000  0.000000 -0.000901  0.000000  0.000000
  1Pd  3py        0.000000  0.017668 -0.000000 -0.000000  0.000004 -0.000004
  1Pd  4pz       -0.000000  0.000000  0.013298  0.000000  0.000074  0.000068
  1Pd  4px       -0.027913  0.000000  0.000000 -0.001772  0.000000  0.000000
  1Pd  4py       -0.000000 -0.013298  0.000000 -0.000000  0.000068 -0.000074
  1Pd  5pz       -0.000000 -0.000000 -0.011848  0.000000  0.000232  0.000213
  1Pd  5px        0.000506  0.000000  0.000000 -0.000417  0.000000 -0.000000
  1Pd  5py        0.000000  0.011848 -0.000000 -0.000000  0.000213 -0.000232
  1Pd  6pz       -0.000000  0.000000  0.016250  0.000000  0.000207  0.000191
  1Pd  6px       -0.022733  0.000000 -0.000000  0.000178  0.000000 -0.000000
  1Pd  6py       -0.000000 -0.016250  0.000000 -0.000000  0.000191 -0.000207
  1Pd  1dz2       0.000098 -0.000000 -0.000000  0.499971  0.000000 -0.000000
  1Pd  1dxz      -0.000000  0.000000  0.000235 -0.000000 -0.735970 -0.676964
  1Pd  1dyz       0.000000  0.000000  0.000000  0.000000  0.000000 -0.000000
  1Pd  1dx2y2    -0.000170 -0.000000 -0.000000 -0.865975  0.000000  0.000000
  1Pd  1dxy      -0.000000 -0.000235  0.000000  0.000000 -0.676964  0.735970
  1Pd  2dz2      -0.001643  0.000000  0.000000 -0.003563 -0.000000  0.000000
  1Pd  2dxz      -0.000000 -0.000000 -0.000124  0.000000  0.004832  0.004445
  1Pd  2dyz      -0.000000  0.000000 -0.000000 -0.000000 -0.000000  0.000000
  1Pd  2dx2y2     0.002847 -0.000000 -0.000000  0.006170 -0.000000 -0.000000
  1Pd  2dxy      -0.000000  0.000124 -0.000000 -0.000000  0.004445 -0.004832
  1Pd  3dz2      -0.003189  0.000000  0.000000 -0.001255  0.000000  0.000000
  1Pd  3dxz       0.000000 -0.000000 -0.001522  0.000000  0.001391  0.001280
  1Pd  3dyz       0.000000  0.000000  0.000000 -0.000000 -0.000000  0.000000
  1Pd  3dx2y2     0.005524 -0.000000 -0.000000  0.002174 -0.000000 -0.000000
  1Pd  3dxy      -0.000000  0.001522 -0.000000 -0.000000  0.001280 -0.001391
  1Pd  4dz2      -0.002326  0.000000 -0.000000  0.001212  0.000000 -0.000000
  1Pd  4dxz       0.000000 -0.000000 -0.002275 -0.000000 -0.001857 -0.001708
  1Pd  4dyz       0.000000  0.000000  0.000000  0.000000  0.000000 -0.000000
  1Pd  4dx2y2     0.004029 -0.000000  0.000000 -0.002100 -0.000000  0.000000
  1Pd  4dxy      -0.000000  0.002275 -0.000000  0.000000 -0.001708  0.001857
  1Pd  1f0       -0.000000  0.000000  0.000324  0.000000  0.000060  0.000055
  1Pd  1f+1      -0.000005 -0.000000 -0.000000  0.000148 -0.000000 -0.000000
  1Pd  1f-1      -0.000000 -0.000132  0.000000 -0.000000  0.000023 -0.000025
  1Pd  1f+2       0.000000 -0.000000 -0.000418 -0.000000 -0.000078 -0.000071
  1Pd  1f-2       0.000000 -0.000000  0.000000 -0.000000  0.000000  0.000000
  1Pd  1f+3      -0.000006 -0.000000 -0.000000  0.000192 -0.000000 -0.000000
  1Pd  1f-3      -0.000000 -0.000512  0.000000 -0.000000  0.000087 -0.000095
  1Pd  2f0        0.000000 -0.000000 -0.000218 -0.000000 -0.000102 -0.000094
  1Pd  2f+1      -0.000309  0.000000  0.000000 -0.000203  0.000000  0.000000
  1Pd  2f-1       0.000000  0.000089 -0.000000  0.000000 -0.000038  0.000041
  1Pd  2f+2      -0.000000  0.000000  0.000281  0.000000  0.000131  0.000121
  1Pd  2f-2       0.000000  0.000000  0.000000 -0.000000 -0.000000  0.000000
  1Pd  2f+3      -0.000400  0.000000  0.000000 -0.000262  0.000000  0.000000
  1Pd  2f-3       0.000000  0.000344 -0.000000  0.000000 -0.000148  0.000161
  1Pd  1g0       -0.000181 -0.000000  0.000000  0.000034  0.000000 -0.000000
  1Pd  1g+1       0.000000 -0.000000 -0.000273 -0.000000 -0.000041 -0.000037
  1Pd  1g-1      -0.000000 -0.000000 -0.000000 -0.000000 -0.000000  0.000000
  1Pd  1g+2       0.000271 -0.000000  0.000000 -0.000050  0.000000  0.000000
  1Pd  1g-2       0.000000  0.000128 -0.000000  0.000000 -0.000018  0.000020
  1Pd  1g+3       0.000000 -0.000000 -0.000240 -0.000000 -0.000036 -0.000034
  1Pd  1g-3      -0.000000 -0.000000 -0.000000  0.000000  0.000000  0.000000
  1Pd  1g+4       0.000358 -0.000000  0.000000 -0.000066  0.000000  0.000000
  1Pd  1g-4       0.000000  0.000340 -0.000000  0.000000 -0.000047  0.000051
                     12        13        14        15        16        17   
                 -12.06184 -12.06184  -2.50494  -1.75018  -1.74021  -1.74021
                   1.00000   1.00000   1.00000   1.00000   1.00000   1.00000
                  --------  --------  --------  --------  --------  --------
  0H   1s         0.000000  0.000000  0.700569  0.022386 -0.000000 -0.000000
  0H   2s         0.000000  0.000000  0.357451  0.036076  0.000000  0.000000
  0H   3s        -0.000000 -0.000000 -0.149210 -0.004538  0.000000  0.000000
  0H   4s        -0.000000 -0.000000 -0.020032 -0.001130  0.000000  0.000000
  0H   1pz       -0.000000 -0.000000 -0.000000 -0.000000 -0.000000  0.003265
  0H   1px       -0.000000  0.000000  0.343280 -0.001138  0.000000  0.000000
  0H   1py        0.000000 -0.000000  0.000000  0.000000 -0.003265  0.000000
  0H   2pz        0.000000 -0.000000 -0.000000 -0.000000  0.000000  0.006193
  0H   2px        0.000000  0.000000  0.163401  0.007549  0.000000  0.000000
  0H   2py       -0.000000  0.000000  0.000000  0.000000 -0.006193  0.000000
  0H   3pz        0.000000 -0.000000 -0.000000 -0.000000  0.000000  0.002060
  0H   3px       -0.000000 -0.000000 -0.034054  0.001020  0.000000  0.000000
  0H   3py       -0.000000  0.000000  0.000000  0.000000 -0.002060 -0.000000
  0H   1dz2       0.000000  0.000055 -0.048766  0.002063 -0.000000 -0.000000
  0H   1dxz      -0.000000  0.000000  0.000000  0.000000 -0.000000 -0.000598
  0H   1dyz      -0.000063  0.000000 -0.000000 -0.000000  0.000000  0.000000
  0H   1dx2y2     0.000000  0.000031  0.084465 -0.003573  0.000000 -0.000000
  0H   1dxy       0.000000 -0.000000 -0.000000 -0.000000  0.000598  0.000000
  0H   2dz2       0.000000  0.000033 -0.024078  0.000234 -0.000000 -0.000000
  0H   2dxz      -0.000000  0.000000  0.000000  0.000000 -0.000000  0.000316
  0H   2dyz      -0.000038  0.000000 -0.000000 -0.000000  0.000000 -0.000000
  0H   2dx2y2     0.000000  0.000019  0.041704 -0.000406  0.000000 -0.000000
  0H   2dxy       0.000000 -0.000000 -0.000000 -0.000000 -0.000316  0.000000
  1Pd  1s        -0.000000 -0.000000  0.004443 -0.000243 -0.000000 -0.000000
  1Pd  2s        -0.000000 -0.000000 -0.049847 -0.000413 -0.000000 -0.000000
  1Pd  3s         0.000000 -0.000000 -0.028957 -0.004004 -0.000000 -0.000000
  1Pd  4s        -0.000000 -0.000000 -1.332409  0.002341 -0.000000 -0.000000
  1Pd  5s        -0.000000 -0.000000 -0.598578 -0.038014 -0.000000 -0.000000
  1Pd  6s         0.000000  0.000000  0.298465  0.004649 -0.000000  0.000000
  1Pd  7s         0.000000 -0.000000 -0.164809  0.003363 -0.000000  0.000000
  1Pd  1pz        0.000000  0.000000 -0.000000  0.000000 -0.000000 -0.004712
  1Pd  1px       -0.000000  0.000000  0.002337  0.004702  0.000000  0.000000
  1Pd  1py       -0.000000 -0.000000 -0.000000 -0.000000  0.004712 -0.000000
  1Pd  2pz        0.000000 -0.000000  0.000000 -0.000000  0.000000  0.017470
  1Pd  2px       -0.000000  0.000000  0.027237 -0.017274 -0.000000 -0.000000
  1Pd  2py       -0.000000  0.000000  0.000000  0.000000 -0.017470  0.000000
  1Pd  3pz       -0.000000  0.000000  0.000000  0.000000 -0.000000 -1.000618
  1Pd  3px        0.000000  0.000000  0.236357  1.001177  0.000000  0.000000
  1Pd  3py        0.000000  0.000000 -0.000000 -0.000000  1.000618 -0.000000
  1Pd  4pz       -0.000000  0.000000  0.000000  0.000000  0.000000 -0.019052
  1Pd  4px        0.000000  0.000000  0.417598  0.033186 -0.000000 -0.000000
  1Pd  4py        0.000000  0.000000 -0.000000 -0.000000  0.019052 -0.000000
  1Pd  5pz       -0.000000  0.000000  0.000000  0.000000  0.000000  0.005167
  1Pd  5px        0.000000  0.000000  0.158354  0.005612 -0.000000 -0.000000
  1Pd  5py        0.000000 -0.000000 -0.000000 -0.000000 -0.005167 -0.000000
  1Pd  6pz       -0.000000  0.000000  0.000000  0.000000  0.000000 -0.009451
  1Pd  6px        0.000000  0.000000  0.028796  0.014680 -0.000000 -0.000000
  1Pd  6py        0.000000 -0.000000 -0.000000 -0.000000  0.009451 -0.000000
  1Pd  1dz2       0.000003  0.866004  0.003428 -0.000043 -0.000000 -0.000000
  1Pd  1dxz       0.000000 -0.000000 -0.000000  0.000000 -0.000000 -0.000002
  1Pd  1dyz      -0.999975  0.000003  0.000000  0.000000 -0.000000  0.000000
  1Pd  1dx2y2     0.000002  0.499987 -0.005937  0.000074  0.000000  0.000000
  1Pd  1dxy      -0.000000  0.000000  0.000000  0.000000  0.000002  0.000000
  1Pd  2dz2      -0.000000 -0.005591  0.073258  0.005188 -0.000000 -0.000000
  1Pd  2dxz      -0.000000  0.000000 -0.000000 -0.000000 -0.000000  0.004574
  1Pd  2dyz       0.006455 -0.000000  0.000000  0.000000 -0.000000 -0.000000
  1Pd  2dx2y2    -0.000000 -0.003228 -0.126886 -0.008985  0.000000  0.000000
  1Pd  2dxy       0.000000 -0.000000  0.000000  0.000000 -0.004574  0.000000
  1Pd  3dz2      -0.000000 -0.001692  0.065666  0.002915 -0.000000  0.000000
  1Pd  3dxz      -0.000000  0.000000 -0.000000 -0.000000 -0.000000  0.002523
  1Pd  3dyz       0.001954 -0.000000  0.000000 -0.000000 -0.000000 -0.000000
  1Pd  3dx2y2    -0.000000 -0.000977 -0.113737 -0.005048  0.000000  0.000000
  1Pd  3dxy       0.000000 -0.000000  0.000000  0.000000 -0.002523  0.000000
  1Pd  4dz2       0.000000  0.001859  0.002465  0.001769 -0.000000  0.000000
  1Pd  4dxz       0.000000 -0.000000 -0.000000 -0.000000 -0.000000  0.001730
  1Pd  4dyz      -0.002147  0.000000  0.000000 -0.000000 -0.000000 -0.000000
  1Pd  4dx2y2     0.000000  0.001073 -0.004270 -0.003063  0.000000 -0.000000
  1Pd  4dxy      -0.000000  0.000000  0.000000  0.000000 -0.001730  0.000000
  1Pd  1f0       -0.000000  0.000000 -0.000000  0.000000 -0.000000  0.000831
  1Pd  1f+1      -0.000000 -0.000013 -0.023843 -0.001487  0.000000  0.000000
  1Pd  1f-1       0.000000 -0.000000  0.000000  0.000000 -0.000334  0.000000
  1Pd  1f+2       0.000000 -0.000000  0.000000  0.000000  0.000000 -0.001067
  1Pd  1f-2       0.000017 -0.000000  0.000000  0.000000  0.000000  0.000000
  1Pd  1f+3       0.000000  0.000010 -0.030781 -0.001920  0.000000  0.000000
  1Pd  1f-3       0.000000 -0.000000  0.000000  0.000000 -0.001310  0.000000
  1Pd  2f0        0.000000 -0.000000  0.000000  0.000000  0.000000 -0.000297
  1Pd  2f+1      -0.000000 -0.000042  0.018744  0.000520 -0.000000  0.000000
  1Pd  2f-1      -0.000000  0.000000 -0.000000 -0.000000  0.000136  0.000000
  1Pd  2f+2      -0.000000  0.000000 -0.000000 -0.000000  0.000000  0.000402
  1Pd  2f-2       0.000053 -0.000000 -0.000000 -0.000000 -0.000000 -0.000000
  1Pd  2f+3       0.000000  0.000032  0.024199  0.000671 -0.000000 -0.000000
  1Pd  2f-3      -0.000000  0.000000 -0.000000 -0.000000  0.000481 -0.000000
  1Pd  1g0       -0.000000 -0.000001 -0.002329 -0.000155  0.000000 -0.000000
  1Pd  1g+1       0.000000 -0.000000 -0.000000 -0.000000 -0.000000 -0.000252
  1Pd  1g-1       0.000001 -0.000000  0.000000  0.000000  0.000000  0.000000
  1Pd  1g+2       0.000000  0.000001  0.003481  0.000249  0.000000 -0.000000
  1Pd  1g-2      -0.000000 -0.000000 -0.000000 -0.000000  0.000100 -0.000000
  1Pd  1g+3       0.000000 -0.000000  0.000000  0.000000  0.000000 -0.000202
  1Pd  1g-3       0.000002 -0.000000  0.000000  0.000000  0.000000  0.000000
  1Pd  1g+4      -0.000000 -0.000001  0.004600  0.000319  0.000000  0.000000
  1Pd  1g-4      -0.000000  0.000000 -0.000000 -0.000000  0.000307 -0.000000
                     18        19        20        21        22        23   
                  -0.29131  -0.11486  -0.11486  -0.10303  -0.10301  -0.09690
                   1.00000   1.00000   1.00000   1.00000   1.00000   1.00000
                  --------  --------  --------  --------  --------  --------
  0H   1s        -0.983359  0.000000  0.000000 -0.000000 -0.000000 -0.501427
  0H   2s        -0.140274  0.000000  0.000000 -0.000000 -0.000000 -0.352804
  0H   3s         0.038597 -0.000000 -0.000000  0.000000  0.000000  0.005325
  0H   4s         0.006014 -0.000000 -0.000000 -0.000000  0.000000  0.007808
  0H   1pz        0.000000 -0.000010 -0.060024  0.000000  0.000000 -0.000000
  0H   1px       -0.103497  0.000000  0.000000 -0.000000 -0.000000 -0.066484
  0H   1py       -0.000000 -0.060024  0.000010 -0.000000 -0.000000 -0.000000
  0H   2pz        0.000000 -0.000004 -0.023500  0.000000  0.000000 -0.000000
  0H   2px       -0.042832  0.000000  0.000000 -0.000000 -0.000000 -0.058545
  0H   2py       -0.000000 -0.023500  0.000004 -0.000000 -0.000000 -0.000000
  0H   3pz        0.000000 -0.000000 -0.001899 -0.000000  0.000000  0.000000
  0H   3px        0.006636 -0.000000 -0.000000  0.000000  0.000000 -0.001111
  0H   3py       -0.000000 -0.001899  0.000000  0.000000  0.000000 -0.000000
  0H   1dz2       0.013063 -0.000000 -0.000000  0.000000  0.003593  0.007544
  0H   1dxz      -0.000000 -0.000001 -0.007061  0.000000  0.000000 -0.000000
  0H   1dyz       0.000000  0.000000 -0.000000 -0.004147  0.000000  0.000000
  0H   1dx2y2    -0.022626  0.000000  0.000000 -0.000000  0.002074 -0.013066
  0H   1dxy      -0.000000 -0.007061  0.000001 -0.000000 -0.000000 -0.000000
  0H   2dz2       0.005693 -0.000000 -0.000000  0.000000  0.001268  0.004438
  0H   2dxz      -0.000000 -0.000000 -0.001369  0.000000  0.000000 -0.000000
  0H   2dyz       0.000000  0.000000 -0.000000 -0.001462  0.000000  0.000000
  0H   2dx2y2    -0.009861  0.000000  0.000000 -0.000000  0.000732 -0.007687
  0H   2dxy       0.000000 -0.001369  0.000000 -0.000000 -0.000000 -0.000000
  1Pd  1s         0.001167 -0.000000 -0.000000  0.000000  0.000000  0.000691
  1Pd  2s         0.016753 -0.000000 -0.000000  0.000000  0.000000  0.015208
  1Pd  3s         0.047995 -0.000000 -0.000000  0.000000  0.000000  0.037961
  1Pd  4s         0.239080 -0.000000 -0.000000  0.000000  0.000000  0.191087
  1Pd  5s         0.099882 -0.000000 -0.000000 -0.000000  0.000000 -0.197189
  1Pd  6s        -0.031459  0.000000  0.000000 -0.000000 -0.000000  0.019826
  1Pd  7s         0.031296 -0.000000 -0.000000  0.000000  0.000000  0.057431
  1Pd  1pz        0.000000  0.000000  0.000148  0.000000  0.000000 -0.000000
  1Pd  1px       -0.002012 -0.000000 -0.000000 -0.000000  0.000000 -0.000912
  1Pd  1py       -0.000000  0.000148 -0.000000 -0.000000 -0.000000 -0.000000
  1Pd  2pz       -0.000000  0.000000  0.000658 -0.000000 -0.000000  0.000000
  1Pd  2px       -0.014751  0.000000  0.000000 -0.000000 -0.000000 -0.009013
  1Pd  2py        0.000000  0.000658 -0.000000  0.000000  0.000000  0.000000
  1Pd  3pz       -0.000000  0.000002  0.013527 -0.000000 -0.000000  0.000000
  1Pd  3px       -0.199884  0.000000  0.000000 -0.000000 -0.000000 -0.085151
  1Pd  3py        0.000000  0.013527 -0.000002  0.000000  0.000000  0.000000
  1Pd  4pz       -0.000000 -0.000002 -0.010602 -0.000000 -0.000000  0.000000
  1Pd  4px       -0.077209  0.000000  0.000000 -0.000000 -0.000000 -0.096549
  1Pd  4py        0.000000 -0.010602  0.000002  0.000000  0.000000  0.000000
  1Pd  5pz       -0.000000 -0.000001 -0.004724 -0.000000 -0.000000  0.000000
  1Pd  5px       -0.032349  0.000000  0.000000 -0.000000 -0.000000 -0.040627
  1Pd  5py        0.000000 -0.004724  0.000001  0.000000  0.000000  0.000000
  1Pd  6pz       -0.000000 -0.000000 -0.001133 -0.000000 -0.000000 -0.000000
  1Pd  6px       -0.008392  0.000000  0.000000 -0.000000 -0.000000 -0.010108
  1Pd  6py        0.000000 -0.001133  0.000000  0.000000  0.000000  0.000000
  1Pd  1dz2      -0.001029  0.000000  0.000000  0.000000  0.005591 -0.003341
  1Pd  1dxz       0.000000  0.000001  0.005933  0.000000  0.000000 -0.000000
  1Pd  1dyz      -0.000000 -0.000000 -0.000000 -0.006455  0.000000  0.000000
  1Pd  1dx2y2     0.001783 -0.000000 -0.000000  0.000000  0.003228  0.005787
  1Pd  1dxy      -0.000000  0.005933 -0.000001 -0.000000 -0.000000 -0.000000
  1Pd  2dz2       0.183140  0.000000  0.000000  0.000000  0.863028 -0.386376
  1Pd  2dxz       0.000000  0.000169  0.973999  0.000000  0.000000 -0.000000
  1Pd  2dyz       0.000000 -0.000000 -0.000000 -0.996544  0.000000  0.000000
  1Pd  2dx2y2    -0.317207 -0.000000 -0.000000  0.000000  0.498270  0.669222
  1Pd  2dxy      -0.000000  0.973999 -0.000169 -0.000000 -0.000000  0.000000
  1Pd  3dz2      -0.024014  0.000000  0.000000  0.000000  0.055294 -0.043088
  1Pd  3dxz       0.000000  0.000009  0.052528  0.000000  0.000000 -0.000000
  1Pd  3dyz       0.000000 -0.000000 -0.000000 -0.063780  0.000000  0.000000
  1Pd  3dx2y2     0.041593 -0.000000 -0.000000  0.000000  0.031924  0.074631
  1Pd  3dxy      -0.000000  0.052528 -0.000009 -0.000000 -0.000000 -0.000000
  1Pd  4dz2      -0.003688  0.000000  0.000000  0.000000  0.030853 -0.016862
  1Pd  4dxz       0.000000  0.000005  0.029439  0.000000  0.000000 -0.000000
  1Pd  4dyz       0.000000 -0.000000 -0.000000 -0.035621  0.000000  0.000000
  1Pd  4dx2y2     0.006387 -0.000000 -0.000000  0.000000  0.017813  0.029207
  1Pd  4dxy      -0.000000  0.029439 -0.000005 -0.000000 -0.000000 -0.000000
  1Pd  1f0        0.000000  0.000001  0.004225  0.000000  0.000000 -0.000000
  1Pd  1f+1      -0.004573 -0.000000 -0.000000  0.000000 -0.002469  0.006673
  1Pd  1f-1      -0.000000  0.001704 -0.000000 -0.000000 -0.000000 -0.000000
  1Pd  1f+2      -0.000000 -0.000001 -0.005428 -0.000000 -0.000000  0.000000
  1Pd  1f-2      -0.000000  0.000000 -0.000000  0.003163 -0.000000  0.000000
  1Pd  1f+3      -0.005904 -0.000000 -0.000000  0.000000  0.001913  0.008615
  1Pd  1f-3      -0.000000  0.006665 -0.000001 -0.000000 -0.000000 -0.000000
  1Pd  2f0       -0.000000 -0.000000 -0.001070 -0.000000 -0.000000  0.000000
  1Pd  2f+1      -0.002810  0.000000  0.000000 -0.000000  0.000984 -0.004205
  1Pd  2f-1       0.000000 -0.000443  0.000000  0.000000  0.000000  0.000000
  1Pd  2f+2       0.000000  0.000000  0.001390  0.000000  0.000000 -0.000000
  1Pd  2f-2       0.000000 -0.000000  0.000000 -0.001229  0.000000 -0.000000
  1Pd  2f+3      -0.003627  0.000000  0.000000 -0.000000 -0.000762 -0.005428
  1Pd  2f-3       0.000000 -0.001697  0.000000  0.000000  0.000000  0.000000
  1Pd  1g0       -0.000373 -0.000000  0.000000  0.000000 -0.000378  0.000647
  1Pd  1g+1      -0.000000 -0.000000 -0.001102  0.000000 -0.000000 -0.000000
  1Pd  1g-1      -0.000000  0.000000 -0.000000  0.000259  0.000000  0.000000
  1Pd  1g+2       0.000568 -0.000000  0.000000  0.000000  0.000338 -0.000982
  1Pd  1g-2      -0.000000 -0.000476  0.000000  0.000000 -0.000000 -0.000000
  1Pd  1g+3       0.000000 -0.000000 -0.000925 -0.000000  0.000000  0.000000
  1Pd  1g-3      -0.000000  0.000000 -0.000000  0.000686  0.000000  0.000000
  1Pd  1g+4       0.000745  0.000000 -0.000000 -0.000000 -0.000447 -0.001289
  1Pd  1g-4       0.000000 -0.001358  0.000000  0.000000  0.000000  0.000000
                     24        25        26        27        28        29   
                  -0.02935   0.04285   0.05127   0.05127   0.08334   0.17143
                   0.00000   0.00000   0.00000   0.00000   0.00000   0.00000
                  --------  --------  --------  --------  --------  --------
  0H   1s         1.012351 -0.925208  0.000000  0.000000  1.208165  2.286576
  0H   2s         0.832054 -1.130337  0.000000  0.000000  2.250360  1.544164
  0H   3s         0.112215 -0.170260 -0.000000  0.000000  0.664774 -0.191630
  0H   4s        -0.001485  0.003114 -0.000000 -0.000000  0.024493 -0.042637
  0H   1pz       -0.000000 -0.000000 -0.149770 -0.230759 -0.000000 -0.000000
  0H   1px        0.077057 -0.288654  0.000000  0.000000  0.446421  1.592376
  0H   1py        0.000000 -0.000000  0.230759 -0.149770  0.000000  0.000000
  0H   2pz       -0.000000 -0.000000 -0.151289 -0.233099 -0.000000 -0.000000
  0H   2px        0.042225 -0.177840  0.000000  0.000000  0.347824  1.219080
  0H   2py        0.000000 -0.000000  0.233099 -0.151289  0.000000  0.000000
  0H   3pz       -0.000000 -0.000000 -0.036761 -0.056640  0.000000 -0.000000
  0H   3px       -0.008727  0.003435 -0.000000 -0.000000  0.038169  0.131231
  0H   3py       -0.000000 -0.000000  0.056640 -0.036761 -0.000000  0.000000
  0H   1dz2      -0.011812  0.029842 -0.000000 -0.000000 -0.027027 -0.083209
  0H   1dxz      -0.000000 -0.000000 -0.000312 -0.000481 -0.000000  0.000000
  0H   1dyz       0.000000  0.000000  0.000000  0.000000  0.000000 -0.000000
  0H   1dx2y2     0.020459 -0.051687  0.000000  0.000000  0.046811  0.144122
  0H   1dxy       0.000000 -0.000000  0.000481 -0.000312  0.000000  0.000000
  0H   2dz2      -0.005844  0.014355 -0.000000 -0.000000 -0.015008 -0.040082
  0H   2dxz      -0.000000 -0.000000 -0.000200 -0.000308 -0.000000  0.000000
  0H   2dyz       0.000000  0.000000  0.000000  0.000000  0.000000 -0.000000
  0H   2dx2y2     0.010122 -0.024864  0.000000  0.000000  0.025994  0.069424
  0H   2dxy       0.000000 -0.000000  0.000308 -0.000200  0.000000  0.000000
  1Pd  1s        -0.004179  0.006062 -0.000000 -0.000000 -0.007374 -0.015612
  1Pd  2s        -0.018178  0.028502 -0.000000 -0.000000 -0.052266 -0.106260
  1Pd  3s        -0.090345  0.134078 -0.000000 -0.000000 -0.195632 -0.405163
  1Pd  4s        -0.288654  0.419851 -0.000000 -0.000000 -0.710201 -1.412776
  1Pd  5s        -1.611120  1.112699 -0.000000 -0.000000 -2.237428 -2.378509
  1Pd  6s        -0.079562 -0.894029  0.000000  0.000000 -0.630641  0.942248
  1Pd  7s         0.049874 -0.111900 -0.000000  0.000000 -0.088305 -0.051740
  1Pd  1pz       -0.000000 -0.000000  0.000886  0.001364 -0.000000  0.000000
  1Pd  1px        0.001867 -0.001746 -0.000000 -0.000000  0.001059  0.007433
  1Pd  1py       -0.000000  0.000000 -0.001364  0.000886 -0.000000 -0.000000
  1Pd  2pz        0.000000  0.000000  0.000821  0.001265  0.000000  0.000000
  1Pd  2px        0.013015 -0.021048  0.000000  0.000000  0.021909  0.078812
  1Pd  2py       -0.000000  0.000000 -0.001265  0.000821 -0.000000 -0.000000
  1Pd  3pz        0.000000  0.000000  0.036047  0.055540  0.000000  0.000000
  1Pd  3px        0.154475 -0.175325  0.000000  0.000000  0.152995  0.672371
  1Pd  3py       -0.000000  0.000000 -0.055540  0.036047 -0.000000 -0.000000
  1Pd  4pz        0.000000 -0.000000 -0.316013 -0.486900  0.000000  0.000000
  1Pd  4px       -0.044321 -0.345252  0.000000  0.000000  0.670137  0.915877
  1Pd  4py       -0.000000  0.000000  0.486900 -0.316013 -0.000000 -0.000000
  1Pd  5pz        0.000000 -0.000000 -0.214868 -0.331060  0.000000  0.000000
  1Pd  5px       -0.053991 -0.145727  0.000000  0.000000  0.366265  0.333553
  1Pd  5py       -0.000000 -0.000000  0.331060 -0.214868 -0.000000 -0.000000
  1Pd  6pz        0.000000 -0.000000 -0.081721 -0.125913  0.000000  0.000000
  1Pd  6px       -0.025175 -0.030897  0.000000  0.000000  0.114798  0.051847
  1Pd  6py       -0.000000 -0.000000  0.125913 -0.081721  0.000000 -0.000000
  1Pd  1dz2       0.002821 -0.001578  0.000000  0.000000 -0.000070  0.007617
  1Pd  1dxz      -0.000000 -0.000000 -0.001293 -0.001992 -0.000000 -0.000000
  1Pd  1dyz      -0.000000 -0.000000 -0.000000  0.000000 -0.000000  0.000000
  1Pd  1dx2y2    -0.004886  0.002733 -0.000000 -0.000000  0.000122 -0.013193
  1Pd  1dxy       0.000000 -0.000000  0.001992 -0.001293  0.000000  0.000000
  1Pd  2dz2       0.212380  0.021194  0.000000 -0.000000 -0.116045  0.116115
  1Pd  2dxz      -0.000000 -0.000000 -0.084096 -0.129572 -0.000000 -0.000000
  1Pd  2dyz       0.000000  0.000000 -0.000000  0.000000 -0.000000  0.000000
  1Pd  2dx2y2    -0.367853 -0.036709 -0.000000  0.000000  0.200995 -0.201116
  1Pd  2dxy       0.000000 -0.000000  0.129572 -0.084096  0.000000  0.000000
  1Pd  3dz2       0.047067 -0.051057  0.000000  0.000000  0.024317  0.311335
  1Pd  3dxz      -0.000000 -0.000000 -0.039700 -0.061168 -0.000000 -0.000000
  1Pd  3dyz      -0.000000 -0.000000  0.000000 -0.000000 -0.000000 -0.000000
  1Pd  3dx2y2    -0.081523  0.088433 -0.000000 -0.000000 -0.042119 -0.539247
  1Pd  3dxy       0.000000 -0.000000  0.061168 -0.039700  0.000000  0.000000
  1Pd  4dz2       0.016195 -0.006960  0.000000  0.000000 -0.001308  0.105103
  1Pd  4dxz      -0.000000 -0.000000 -0.019971 -0.030771 -0.000000 -0.000000
  1Pd  4dyz      -0.000000 -0.000000  0.000000 -0.000000 -0.000000 -0.000000
  1Pd  4dx2y2    -0.028051  0.012056 -0.000000 -0.000000  0.002266 -0.182043
  1Pd  4dxy       0.000000 -0.000000  0.030771 -0.019971  0.000000  0.000000
  1Pd  1f0       -0.000000 -0.000000  0.000239  0.000368 -0.000000  0.000000
  1Pd  1f+1      -0.005659  0.017445 -0.000000 -0.000000 -0.014188 -0.038371
  1Pd  1f-1       0.000000 -0.000000 -0.000137  0.000089  0.000000  0.000000
  1Pd  1f+2       0.000000  0.000000 -0.000297 -0.000458  0.000000 -0.000000
  1Pd  1f-2       0.000000  0.000000  0.000000  0.000000  0.000000  0.000000
  1Pd  1f+3      -0.007305  0.022522 -0.000000 -0.000000 -0.018316 -0.049537
  1Pd  1f-3       0.000000 -0.000000 -0.000572  0.000371  0.000000  0.000000
  1Pd  2f0        0.000000  0.000000  0.000618  0.000953  0.000000 -0.000000
  1Pd  2f+1       0.005850 -0.012511  0.000000  0.000000  0.006715  0.030762
  1Pd  2f-1      -0.000000  0.000000 -0.000420  0.000273 -0.000000 -0.000000
  1Pd  2f+2      -0.000000 -0.000000 -0.000824 -0.001269 -0.000000 -0.000000
  1Pd  2f-2      -0.000000 -0.000000 -0.000000 -0.000000 -0.000000 -0.000000
  1Pd  2f+3       0.007553 -0.016152  0.000000  0.000000  0.008669  0.039714
  1Pd  2f-3      -0.000000  0.000000 -0.001531  0.000993 -0.000000 -0.000000
  1Pd  1g0       -0.000681  0.001311 -0.000000 -0.000000 -0.000650 -0.001523
  1Pd  1g+1      -0.000000 -0.000000 -0.000392 -0.000604 -0.000000 -0.000000
  1Pd  1g-1       0.000000  0.000000  0.000000  0.000000  0.000000  0.000000
  1Pd  1g+2       0.001027 -0.001953  0.000000 -0.000000  0.000962  0.002259
  1Pd  1g-2      -0.000000 -0.000000  0.000286 -0.000186 -0.000000  0.000000
  1Pd  1g+3       0.000000  0.000000 -0.000347 -0.000534  0.000000 -0.000000
  1Pd  1g-3       0.000000  0.000000  0.000000  0.000000  0.000000  0.000000
  1Pd  1g+4       0.001352 -0.002584  0.000000  0.000000  0.001277  0.002995
  1Pd  1g-4       0.000000  0.000000  0.000754 -0.000489 -0.000000 -0.000000
                     30        31        32        33        34        35   
                   0.23084   0.23084   0.34052   0.34060   0.36136   0.47418
                   0.00000   0.00000   0.00000   0.00000   0.00000   0.00000
                  --------  --------  --------  --------  --------  --------
  0H   1s        -0.000000 -0.000000 -0.000000 -0.000000 -5.396508  4.375093
  0H   2s        -0.000000 -0.000000 -0.000000 -0.000000 -3.390749  1.678777
  0H   3s         0.000000  0.000000  0.000000  0.000000  0.269645 -0.857796
  0H   4s         0.000000  0.000000  0.000000  0.000000  0.058159 -0.037347
  0H   1pz        0.184628  0.724921  0.000000  0.000000  0.000000 -0.000000
  0H   1px       -0.000000 -0.000000 -0.000000 -0.000000 -2.205583  0.835584
  0H   1py       -0.724921  0.184628 -0.000000 -0.000000 -0.000000  0.000000
  0H   2pz        0.192283  0.754977  0.000000  0.000000  0.000000 -0.000000
  0H   2px       -0.000000 -0.000000 -0.000000 -0.000000 -1.636397  0.070096
  0H   2py       -0.754977  0.192283 -0.000000 -0.000000 -0.000000  0.000000
  0H   3pz        0.043585  0.171132  0.000000 -0.000000 -0.000000 -0.000000
  0H   3px        0.000000  0.000000 -0.000000  0.000000 -0.126791 -0.217180
  0H   3py       -0.171132  0.043585 -0.000000  0.000000 -0.000000  0.000000
  0H   1dz2       0.000000  0.000000 -0.003664  0.000000  0.158616 -0.159285
  0H   1dxz      -0.002668 -0.010476  0.000000  0.000000  0.000000 -0.000000
  0H   1dyz       0.000000  0.000000  0.000000  0.004225  0.000000 -0.000000
  0H   1dx2y2    -0.000000 -0.000000 -0.002115 -0.000000 -0.274731  0.275889
  0H   1dxy       0.010476 -0.002668 -0.000000 -0.000000 -0.000000  0.000000
  0H   2dz2       0.000000  0.000000 -0.002444  0.000000  0.079058 -0.066230
  0H   2dxz      -0.001090 -0.004280  0.000000  0.000000  0.000000 -0.000000
  0H   2dyz       0.000000  0.000000  0.000000  0.002812  0.000000 -0.000000
  0H   2dx2y2    -0.000000 -0.000000 -0.001411 -0.000000 -0.136932  0.114714
  0H   2dxy       0.004280 -0.001090 -0.000000 -0.000000 -0.000000  0.000000
  1Pd  1s         0.000000  0.000000  0.000000  0.000000  0.027469 -0.013733
  1Pd  2s         0.000000  0.000000  0.000000  0.000000  0.181692 -0.090708
  1Pd  3s         0.000000  0.000000  0.000000  0.000000  0.705837 -0.357667
  1Pd  4s         0.000000  0.000000  0.000000  0.000000  2.488476 -1.325166
[...]
 1 Pd f+3             0.6       0.0       0.0       0.0       0.0       0.6
 1 Pd f-3             0.0       0.4       0.0       0.0       0.6       0.0
 1 Pd g0              1.2       0.0       0.0       0.0       0.0       0.4
 1 Pd g+1             0.0       0.8       8.4       0.8       0.0       0.0
 1 Pd g+2             2.6       0.0       0.0       0.0       0.0       0.8
 1 Pd g-2             0.0       1.9       0.2       0.0       0.2       0.0
 1 Pd g+3             0.0       0.6       6.5       0.6       0.0       0.0
 1 Pd g+4             4.6       0.0       0.0       0.0       0.0       1.4
 1 Pd g-4             0.0      13.0       1.3       0.1       1.3       0.0

                     90   
                   7.20796
                   0.00000
                  --------
 0 H  s              34.4
 0 H  px              7.2
 0 H  dz2             3.8
 0 H  dx2y2          11.5
 1 Pd s               2.4
 1 Pd px             19.2
 1 Pd dz2             1.5
 1 Pd dx2y2           4.5
 1 Pd f+1             1.4
 1 Pd f+3             2.4
 1 Pd g0              1.6
 1 Pd g+2             3.6
 1 Pd g+4             6.3


                      *****************************
                      * MAYER POPULATION ANALYSIS *
                      *****************************

  NA   - Mulliken gross atomic population
  ZA   - Total nuclear charge
  QA   - Mulliken gross atomic charge
  VA   - Mayer's total valence
  BVA  - Mayer's bonded valence
  FA   - Mayer's free valence

  ATOM       NA         ZA         QA         VA         BVA        FA
  0 H      1.0428     1.0000    -0.0428     0.3151    -0.1321     0.4472
  1 Pd    45.9572    46.0000     0.0428    -0.0295    -0.1321     0.1026

  Mayer bond orders larger than 0.100000
B(  0-H ,  1-Pd) :  -0.1321 

-------
TIMINGS
-------

Total SCF time: 0 days 0 hours 5 min 35 sec 

Total time                  ....     335.725 sec
Sum of individual times     ....     335.673 sec  (100.0%)

SCF preparation             ....       0.144 sec  (  0.0%)
Fock matrix formation       ....     335.190 sec  ( 99.8%)
  Startup                   ....       0.048 sec  (  0.0% of F)
  Coulomb+Exchange Fock     ....     330.156 sec  ( 98.5% of F)
  XC integration            ....       4.857 sec  (  1.4% of F)
    XC Preparation          ....       0.000 sec  (  0.0% of XC)
    Basis function eval.    ....       1.866 sec  ( 38.4% of XC)
    Density eval.           ....       0.654 sec  ( 13.5% of XC)
    XC-Functional eval.     ....       0.325 sec  (  6.7% of XC)
    XC-Potential eval.      ....       1.848 sec  ( 38.1% of XC)
Diagonalization             ....       0.000 sec  (  0.0%)
Density matrix formation    ....       0.094 sec  (  0.0%)
Total Energy calculation    ....       0.027 sec  (  0.0%)
Population analysis         ....       0.032 sec  (  0.0%)
Orbital Transformation      ....       0.016 sec  (  0.0%)
Orbital Orthonormalization  ....       0.000 sec  (  0.0%)
DIIS solution               ....       0.107 sec  (  0.0%)
  MO trafo                  ....       0.000 sec  (  0.0 % of DIIS)
  Orb grad                  ....       0.000 sec  (  0.0 % of DIIS)
  Energy W gradient         ....       0.000 sec  (  0.0 % of DIIS)
  DIIS error                ....       0.001 sec  (  1.4 % of DIIS)
  DIIS work                 ....       0.083 sec  ( 78.0 % of DIIS)
  Form Q                    ....       0.000 sec  (  0.0 % of DIIS)
  Form QpQm                 ....       0.000 sec  (  0.0 % of DIIS)
  Exp/Cayley                ....       0.000 sec  (  0.0 % of DIIS)
  Orb update                ....       0.000 sec  (  0.0 % of DIIS)
  Wake-sleep                ....       0.014 sec  ( 13.4 % of DIIS)
SOSCF solution              ....       0.064 sec  (  0.0%)
  MO trafo                  ....       0.028 sec  ( 43.7 % of SOSCF)
  Orb grad                  ....       0.005 sec  (  8.5 % of SOSCF)
  Rot update                ....       0.013 sec  ( 20.2 % of SOSCF)
  Step                      ....       0.017 sec  ( 27.4 % of SOSCF)
Finished LeanSCF after 335.8 sec

Maximum memory used throughout the entire LEANSCF-calculation: 421.7 MB

------------------------------------------------------------------------------
                         ORCA PROPERTY INTEGRAL CALCULATIONS
------------------------------------------------------------------------------

GBWName                                   ... pdh_cpks.gbw
Number of atoms                           ...      2
Number of basis functions                 ...     91
Max core memory                           ...   1024 MB

Dipole integrals                          ... YES
Quadrupole integrals                      ...  NO
Linear momentum integrals                 ...  NO
Angular momentum integrals                ... YES
Higher moments length integrals           ...  NO
Higher moments velocity integrals         ...  NO
Kinetic energy integrals                  ... YES
GIAO right hand sides                     ...  NO
GIAO dipole derivative integrals          ...  NO
SOC integrals                             ... YES
EPR diamagnetic integrals (GIAO)          ...  NO
EPR gauge integrals                       ... YES
Field gradient integrals                  ...  NO (   0 nuclei)
Spin-dipole/Fermi contact integrals       ...  NO (   0 nuclei)
Contact density integrals                 ...  NO (   0 nuclei)
Nucleus-orbit integrals                   ...  NO (   0 nuclei)
Geometric perturbations                   ...  NO (   2 nuclei)

Choice of electric origin   ... Center of mass
Position of electric origin ... (  2.8623,  0.0000,  0.0000) 
Choice of magnetic origin   ... Center of nuclear charge
Position of magnetic origin ... (  2.8279,  0.0000,  0.0000) 

Calculating integrals                     ... Electric Dipole (Length)     done (  0.0 sec)
Calculating integrals                     ... Kinetic Energy               done (  0.0 sec)
Calculating integrals                     ... Angular Momentum  (MagOri)   done (  0.0 sec)
Calculating integrals                     ... EPR-gauge integrals          done (  0.0 sec)
  g-Tensor DSO: Zeff (2-electron approx.) ... YES 
Calculating integrals                     ... Spin-Orbit Coupling
  Spin-orbit operator                     ... Spin-Orbit Mean-Field (SOMF)
      1-El-Flag                           ...  1 ON
      Coulomb-Flag                        ...  2 ON (Via COSJ)
      Exchange-Flag                       ...  3 ON (AMFI type)
      DFT-Correlation Flag                ...  0 OFF
      Max-Center                          ...  4   
      Relativistic Picture Change         ... OFF     
  Electron density on the grid            ... done (%5.1 lf sec) NEL=     0.116965000
  SOC Coulomb terms                       ... done (%5.1 lf sec)
  One-electron part                       ... done (  0.0 sec)
  Two-electron DoJ,X=0,1 MaxCenter=1      ... done (168.0 sec)
  SOC integrals done (182.9 sec)

Property integrals calculated in 183.0 sec

Maximum memory used throughout the entire PROPINT-calculation: 1513.0 MB

-------------------------   --------------------
FINAL SINGLE POINT ENERGY     -4836.765323197428
-------------------------   --------------------

------------------------------------------------------------------------------
                            ORCA SCF RESPONSE CALCULATION
------------------------------------------------------------------------------

GBWName                                 ... pdh_cpks.gbw
Number of atoms                         ...      2
Number of basis functions               ...     91
Max core memory                         ...   1024 MB

Electric field perturbation             ...  NO
Quadrupolar field perturbation          ...  NO
Magnetic field perturbation (no GIAO)   ... YES
Magnetic field perturbation (with GIAO) ...  NO
Linear momentum (velocity) perturbation ...  NO
Spin-orbit coupling perturbation        ...  NO
Choice of electric origin               ... Center of mass
Position of electric origin             ...     2.862275     0.000000     0.000000
Choice of magnetic origin               ... Center of nuclear charge
Position of magnetic origin             ...     2.827915     0.000000     0.000000
Nuclear geometric perturbations         ...  NO (   6 perturbations)
Nucleus-orbit perturbations             ...  NO (   0 perturbations)
Spin-dipole/Fermi contact perturbations ...  NO (   0 perturbations)

Total number of real perturbations      ...      0
Total number of imaginary perturbations ...      3
Total number of triplet perturbations   ...      0
Total number of SOC perturbations       ...      0


                              ***************************
                              * IMAGINARY PERTURBATIONS *
                              ***************************



-------------------
SHARK CP-SCF DRIVER
-------------------

Dimension of the orbital basis          ...     91
Dimension of the CPSCF-problem          ...   3172
Number of operators                     ...      2
Max. number of iterations               ...    128
Convergence Tolerance                   ... 1.0e-03
Number of perturbations                 ...      3
Perturbation type                       ... IMAGINARY

----------------------------
POPLE LINEAR EQUATION SOLVER
----------------------------

  ITERATION   0:   ||err||_max =   1.4471e+00 (  22.5 sec   1/  3 done)
  ITERATION   1:   ||err||_max =   6.2101e-02 (  22.4 sec   1/  3 done)
  ITERATION   2:   ||err||_max =   5.6100e-03 (  22.5 sec   1/  3 done)
  ITERATION   3:   ||err||_max =   4.6179e-04 (  22.7 sec   3/  3 done)

CP-SCF equations solved in  90.1 sec
Response densities calculated in   0.0 sec

Maximum memory used throughout the entire SCFRESP-calculation: 422.9 MB

------------------------------------------------------------------------------
                              ORCA PROPERTY CALCULATIONS
------------------------------------------------------------------------------

GBWName                                 ... pdh_cpks.gbw
Number of atoms                         ...      2
Number of basis functions               ...     91
Max core memory                         ...   1024 MB

Electric properties:
Dipole moment                           ... YES
Quadrupole moment                       ...  NO
Static polarizability (Dipole/Dipole)   ...  NO
Static polarizability (Dipole/Quad.)    ...  NO
Static polarizability (Quad./Quad.)     ...  NO
Static polarizability (Velocity)        ...  NO

Atomic electric properties:
Dipole moment                           ...  NO
Quadrupole moment                       ...  NO
Static polarizability                   ...  NO

Choice of electric origin               ... Center of mass
Position of electric origin             ...     2.862275     0.000000     0.000000

General magnetic properties:
Magnetizability                         ...  NO

EPR properties:
g-Tensor (aka g-matrix)                 ... YES
Zero-Field splitting spin-orbit         ...  NO
Zero-field splitting spin-spin          ...  NO
Hyperfine couplings                     ...  NO (   0 nuclei)
Quadrupole couplings                    ...  NO (   0 nuclei)
Contact density                         ...  NO (   0 nuclei)

NMR properties:
Chemical shifts                         ...  NO (   0 nuclei)
Spin-rotation constants                 ...  NO (   0 nuclei)
Spin-spin couplings                     ...  NO (   0 nuclei,    0 pairs)

Choice of magnetic origin               ... Center of nuclear charge
Position of magnetic origin             ...     2.827915     0.000000     0.000000

Properties with geometric perturbations:
SCF Hessian                             ...  NO
IR spectrum                             ...  NO
VCD spectrum                            ...  NO
X-ray spectroscopy properties:
SCF XES/XAS/RIXS spectra                ...  NO


-------------
DIPOLE MOMENT
-------------

Method             : SCF
Type of density    : Electron Density
Multiplicity       :   2
Irrep              :   0
Energy             : -4836.7653231974281880 Eh
Relativity type    : 
Basis              : AO
                                X                 Y                 Z
Electronic contribution:      2.526169788       0.000000002       0.000000004
Nuclear contribution   :     -1.614925667       0.000000000       0.000000000
                        -----------------------------------------
Total Dipole Moment    :      0.911244121       0.000000002       0.000000004
                        -----------------------------------------
Magnitude (a.u.)       :      0.911244121
Magnitude (Debye)      :      2.316198485



--------------------
Rotational spectrum 
--------------------
 
Rotational constants in cm-1:             0.000000             7.221317             7.221317 
Rotational constants in MHz :             0.000000        216489.632348        216489.632348 

Dipole components along the rotational axes: 
x,y,z [a.u.] :     0.911244     0.000000     0.000000 
x,y,z [Debye]:     2.316198     0.000000     0.000000 

 

Dipole moment calculation done in   0.0 sec 

-------------------
ELECTRONIC G-MATRIX
-------------------

Method             : SCF
Type of density    : Spin Density
Type of derivative : Magnetic Field (no GIAOs) (Direction=X)
Multiplicity       :   2
Irrep              :   0
Relativity type    : 
Basis              : AO
The g-matrix: 
              2.0023678    0.0000000    0.0000000
              0.0000000    2.1421067   -0.0000000
              0.0000000   -0.0000000    2.1421067
DSO contribution to g-matrix:
              0.0004079   -0.0000000   -0.0000000
             -0.0000000    0.0006476   -0.0000000
             -0.0000000   -0.0000000    0.0006476
PSO contribution to g-matrix:
             -0.0000000    0.0000000    0.0000000
              0.0000000    0.1394992   -0.0000000
              0.0000000   -0.0000000    0.1394992

Breakdown of the contributions
 gel          2.0023193    2.0023193    2.0023193
 gRMC        -0.0003594   -0.0003594   -0.0003594
 gDSO(1el)    0.0003304    0.0005240    0.0005240
 gDSO(2el)    0.0000775    0.0001236    0.0001236
 gDSO(tot)    0.0004079    0.0006476    0.0006476
 gPSO(1el)   -0.0000000    0.1950782    0.1950782
 gPSO(2el)    0.0000000   -0.0555790   -0.0555790
 gPSO(tot)   -0.0000000    0.1394992    0.1394992
             ----------   ----------   ----------
 g(tot)       2.0023678    2.1421067    2.1421067 iso=  2.0955271
 Delta-g      0.0000485    0.1397874    0.1397874 iso=  0.0932078

 Orientation: 
  X           1.0000000    0.0000000    0.0000000
  Y          -0.0000000    0.9764355   -0.2158094
  Z          -0.0000000    0.2158094    0.9764355

Notes:  (1) The g-matrix conforms to the "BgS" spin Hamiltonian convention. 
        (2) The principal values are square roots of the eigenvalues of g*gT.
        (3) Orientations are eigenvectors of g*gT written as column vectors.
        (4) Individual contributions are projections of the full matrices onto the eigenvectors of g*gT.
        (5) Tensor is right-handed.

-------------------------------
G-TENSOR ATOM AND BOND ANALYSIS
-------------------------------

 NOTE: We project onto the eigenvectors of the total g-matrix
       that means that contributions do not necessarily add up to the final total g-values
       However, the values should be close and indicate which atoms dominantly contribute

 NOTE: We ONLY analyze the PSO term here!

 H -  0 :    0.0000000   -0.0000072    -0.0000072    iso= -0.0000048  
 Pd-  1 :   -0.0000000    0.1395439 *   0.1395439 *  iso=  0.0930293 *
           ------------- ------------- ------------- -----------------
 Total-1c   -0.0000000     0.1395367     0.1395367         0.0930245
 Total-2c   -0.0000000    -0.0000375    -0.0000375        -0.0000250
 Total      -0.0000000     0.1394992     0.1394992         0.0929995

EPR g-tensor done in   0.0 sec 

Maximum memory used throughout the entire PROP-calculation: 105.3 MB

--------------------------------
SUGGESTED CITATIONS FOR THIS RUN
--------------------------------

Below you find a list of papers that are relevant to this ORCA run
We neither can nor want to force you to cite these papers, but we appreciate if you do
You receive ORCA, which is the product of decades of hard work by many enthusiastic individuals, for free
The only thing we kindly ask in return is that you cite our papers,
We deeply appreciate it, if you show your appreciation for ORCA by not just citing the generic ORCA reference.

Please note that relegating all ORCA citations to the supporting information does *not* help us.
SI sections are not indexed - citations you put there will not count into any citation statistics
But we need these citations in order to attract the funding resources that allow us to do what we are doing

Therefore, if you are a happy ORCA user, please consider citing a few of the papers listed below in the main body of your paper

In addition to the list printed below, the program has created the file pdh_cpks.bibtex that contains the list in bibtex format
You can import this file easily into all common literature databanks and citation aid programs


List of essential papers. We consider these as the minimum necessary citations

  1. Neese,F.
     Software update: the ORCA program system, version 5.0
     WIRES Comput. Molec. Sci., 2022 12(1)e1606
     doi.org/10.1002/wcms.1606

List of papers to cite with high priority. The work reported in these papers was absolutely
necessary for this run to complete.
Our perspective: the developers of density functionals and basis sets usually get cited in chemistry papers
Good! But without the algorithms to do something with them, the functionals or basis sets would not do anything.
Hence, in our opinion, the algorithm design and method developments papers are equally worthy of getting cited

  1. Neese,F.
     Prediction of electron paramagnetic resonance g values using coupled perturbed Hartree-Fock and Kohn-Sham theory
     J. Chem. Phys., 2001 115(24)11080-11096
     doi.org/10.1063/1.1419058
  2. Neese,F.
     Efficient and accurate approximations to the molecular spin-orbit coupling operator and their use in molecular g-tensor calculations
     J. Chem. Phys., 2005 122(3)Art. No. 034107
     doi.org/10.1063/1.1829047
  3. Neese,F.
     The SHARK Integral Generation and Digestion System
     J. Comp. Chem., 2022  1-16
     doi.org/10.1002/jcc.26942

List of suggested additional citations. These are papers that are important in the 'surrounding' of 
of this run, or papers that preceded the highly important papers. If you like your results we are grateful for a citation.

  1. Neese,F.
     The ORCA program system
     WIRES Comput. Molec. Sci., 2012 2(1)73-78
     doi.org/10.1002/wcms.81
  2. Neese,F.
     Software update: the ORCA program system, version 4.0
     WIRES Comput. Molec. Sci., 2018 8(1)1-6
     doi.org/10.1002/wcms.1327
  3. Neese,F.; Wennmohs,F.; Becker,U.; Riplinger,C.
     The ORCA quantum chemistry program package
     J. Chem. Phys., 2020 152 Art. No. L224108
     doi.org/10.1063/5.0004608

List of optional additional citations

  1. Neese,F.
     Approximate second-order SCF convergence for spin unrestricted wavefunctions
     Chem. Phys. Lett., 2000 325(1-3)93-98
     doi.org/10.1016/s0009-2614(00)00662-x

Timings for individual modules:

Sum of individual times          ...      617.079 sec (=  10.285 min)
Startup calculation              ...        6.759 sec (=   0.113 min)   1.1 %
SCF iterations                   ...      336.543 sec (=   5.609 min)  54.5 %
Property integrals               ...      183.144 sec (=   3.052 min)  29.7 %
SCF Response                     ...       90.425 sec (=   1.507 min)  14.7 %
Property calculations            ...        0.208 sec (=   0.003 min)   0.0 %
                             ****ORCA TERMINATED NORMALLY****
TOTAL RUN TIME: 0 days 0 hours 10 minutes 17 seconds 207 msec
