
                                 *****************
                                 * O   R   C   A *
                                 *****************

                                            #,                                       
                                            ###                                      
                                            ####                                     
                                            #####                                    
                                            ######                                   
                                           ########,                                 
                                     ,,################,,,,,                         
                               ,,#################################,,                 
                          ,,##########################################,,             
                       ,#########################################, ''#####,          
                    ,#############################################,,   '####,        
                  ,##################################################,,,,####,       
                ,###########''''           ''''###############################       
              ,#####''   ,,,,##########,,,,          '''####'''          '####       
            ,##' ,,,,###########################,,,                        '##       
           ' ,,###''''                  '''############,,,                           
         ,,##''                                '''############,,,,        ,,,,,,###''
      ,#''                                            '''#######################'''  
     '                                                          ''''####''''         
             ,#######,   #######,   ,#######,      ##                                
            ,#'     '#,  ##    ##  ,#'     '#,    #''#        ,####,   ,####,        
            ##       ##  ##   ,#'  ##            #'  '#       #'       #'  '#        
            ##       ##  #######   ##           ,######,      #####,   #    #        
            '#,     ,#'  ##    ##  '#,     ,#' ,#      #,     #,   #   #,  ,#        
             '#######'   ##     ##  '#######'  #'      '#     '####' # '####'        



                #########################################################
                #                        -***-                          #
                #          Department of theory and spectroscopy        #
                #                                                       #
                #                      Frank Neese                      #
                #                                                       #
                #     Directorship, Architecture, Infrastructure        #
                #                    SHARK, DRIVERS                     #
                #        Core code/Algorithms in most modules           #
                #                                                       #
                #        Max Planck Institute fuer Kohlenforschung      #
                #                Kaiser Wilhelm Platz 1                 #
                #                 D-45470 Muelheim/Ruhr                 #
                #                      Germany                          #
                #                                                       #
                #                  All rights reserved                  #
                #                        -***-                          #
                #########################################################


                         Program Version 6.0.0  -   RELEASE  -


 With contributions from (in alphabetic order):
   Daniel Aravena         : Magnetic Suceptibility
   Michael Atanasov       : Ab Initio Ligand Field Theory (pilot matlab implementation)
   Alexander A. Auer      : GIAO ZORA, VPT2 properties, NMR spectrum
   Ute Becker             : All parallelization in ORCA, NUMFREQ, NUMCALC
   Giovanni Bistoni       : ED, misc. LED, open-shell LED, HFLD
   Martin Brehm           : Molecular dynamics
   Dmytro Bykov           : pre 5.0 version of the SCF Hessian
   Marcos Casanova-Páez   : Triplet and SCS-CIS(D). UHF-(DLPNO)-IP/EA/STEOM-CCSD. UHF-CVS-IP/STEOM-CCSD
   Vijay G. Chilkuri      : MRCI spin determinant printing, contributions to CSF-ICE
   Pauline Colinet        : FMM embedding
   Dipayan Datta          : RHF DLPNO-CCSD density
   Achintya Kumar Dutta   : EOM-CC, STEOM-CC
   Nicolas Foglia         : Exact transition moments, OPA infrastructure, MCD improvements
   Dmitry Ganyushin       : Spin-Orbit,Spin-Spin,Magnetic field MRCI
   Miquel Garcia          : C-PCM and meta-GGA Hessian, CCSD/C-PCM, Gaussian charge scheme
   Tiago L. C. Gouveia    : GS-ROHF, GS-ROCIS
   Yang Guo               : DLPNO-NEVPT2, F12-NEVPT2, CIM, IAO-localization
   Andreas Hansen         : Spin unrestricted coupled pair/coupled cluster methods
   Ingolf Harden          : AUTO-CI MPn and infrastructure 
   Benjamin Helmich-Paris : MC-RPA, TRAH-(SCF,CASSCF), AVAS, COSX integrals, SCF dyn. polar.
   Lee Huntington         : MR-EOM, pCC
   Robert Izsak           : Overlap fitted RIJCOSX, COSX-SCS-MP3, EOM
   Riya Kayal             : Wick's Theorem for AUTO-CI, AUTO-CI UHF-CCSDT
   Emily Kempfer          : AUTO-CI, RHF CISDT and CCSDT
   Christian Kollmar      : KDIIS, OOCD, Brueckner-CCSD(T), CCSD density, CASPT2, CASPT2-K, improved NEVPT2
   Axel Koslowski         : Symmetry handling
   Simone Kossmann        : Meta GGA functionals, TD-DFT gradient, OOMP2, (MP2 Hessian; deprecated post 5.0)
   Lucas Lang             : DCDCAS
   Marvin Lechner         : AUTO-CI (C++ implementation), FIC-MRCC
   Spencer Leger          : CASSCF response
   Dagmar Lenk            : GEPOL surface, SMD, ORCA-2-JSON
   Dimitrios Liakos       : Extrapolation schemes; Compound Job, initial MDCI parallelization
   Dimitrios Manganas     : Further ROCIS development; embedding schemes. LFT, Crystal Embedding
   Dimitrios Pantazis     : SARC Basis sets
   Anastasios Papadopoulos: AUTO-CI, single reference methods and gradients
   Taras Petrenko         : pre 6.0 DFT Hessian and TD-DFT gradient, (ASA, deprecated), ECA, 1-Electron XAS/XES, NRVS
   Peter Pinski           : DLPNO-MP2, DLPNO-MP2 Gradient
   Christoph Reimann      : Effective Core Potentials
   Marius Retegan         : Local ZFS, SOC
   Christoph Riplinger    : Optimizer, TS searches, QM/MM, DLPNO-CCSD(T), (RO)-DLPNO pert. Triples
   Michael Roemelt        : Original ROCIS implementation
   Masaaki Saitow         : Open-shell DLPNO-CCSD energy and density
   Barbara Sandhoefer     : DKH picture change effects
   Kantharuban Sivalingam : CASSCF convergence/infrastructure, NEVPT2 and variants, FIC-MRCI
   Bernardo de Souza      : ESD, SOC TD-DFT
   Georgi Stoychev        : AutoAux, RI-MP2 NMR, DLPNO-MP2 response, X2C
   Van Anh Tran           : RI-MP2 g-tensors
   Willem Van den Heuvel  : Paramagnetic NMR
   Zikuan Wang            : NOTCH, Electric field optimization 
   Frank Wennmohs         : Technical directorship and infrastructure
   Hang Xu                : AUTO-CI-Response properties 


 We gratefully acknowledge several colleagues who have allowed us to
 interface, adapt or use parts of their codes:
   Stefan Grimme, W. Hujo, H. Kruse, P. Pracht,  : VdW corrections, initial TS optimization,
                  C. Bannwarth, S. Ehlert,         DFT functionals, gCP, sTDA/sTD-DF
                  L. Wittmann, M. Mueller
   Ed Valeev, F. Pavosevic, A. Kumar             : LibInt (2-el integral package), F12 methods
   Garnet Chan, S. Sharma, J. Yang, R. Olivares  : DMRG
   Ulf Ekstrom                                   : XCFun DFT Library
   Mihaly Kallay                                 : mrcc  (arbitrary order and MRCC methods)
   Frank Weinhold                                : gennbo (NPA and NBO analysis)
   Simon Mueller                                 : openCOSMO-RS
   Christopher J. Cramer and Donald G. Truhlar   : smd solvation model
   Lars Goerigk                                  : TD-DFT with DH, B97 family of functionals
   V. Asgeirsson, H. Jonsson                     : NEB implementation
   FAccTs GmbH                                   : IRC, NEB, NEB-TS, DLPNO-Multilevel, CI-OPT
                                                   MM, QMMM, 2- and 3-layer-ONIOM, Crystal-QMMM,
                                                   LR-CPCM, SF, NACMEs, symmetry and pop. for TD-DFT,
                                                   nearIR, NL-DFT gradient (VV10), updates on ESD,
                                                   ML-optimized integration grids, MBIS, APM,
                                                   GOAT, DOCKER, SOLVATOR, interface openCOSMO-RS
   S Lehtola, MJT Oliveira, MAL Marques          : LibXC Library
   Liviu Ungur et al                             : ANISO software


 Your calculation uses the libint2 library for the computation of 2-el integrals
 For citations please refer to: http://libint.valeyev.net

 Your ORCA version has been built with support for libXC version: 6.2.2
 For citations please refer to: https://libxc.gitlab.io

 This ORCA versions uses:
   CBLAS   interface :  Fast vector & matrix operations
   LAPACKE interface :  Fast linear algebra routines
   SCALAPACK package :  Parallel linear algebra routines
   Shared memory     :  Shared parallel matrices
   BLAS/LAPACK       :  OpenBLAS 0.3.27  USE64BITINT DYNAMIC_ARCH NO_AFFINITY SkylakeX SINGLE_THREADED
        Core in use  :  SkylakeX
   Copyright (c) 2011-2014, The OpenBLAS Project




************************************
The Z-Matrix will be read from file: rhh2.gzmt
************************************


BuildBasisSet found the ANOflag in the standard basis to be TRUE and will set the global ANO flag
================================================================================

----- Orbital basis set information -----
Your calculation utilizes the basis: ANO-RCC-TZP
   H, He:       P.-O. Widmark, P.-A. Malmqvist, and B. O. Roos, Theor. Chim. Acta 77, 291 (1990).
   s block:     B. O. Roos, V. Veryazov and P.-O. Widmark, Theor. Chem. Acc. 111, 345 (2004).
   p block:     B. O. Roos, R. Lindh, P.-A. Malmqvist, V. Veryazov, and P.-O. Widmark, J. Phys. Chem. A 108, 2851 (2004).
   d block:     B. O. Roos, R. Lindh, P.-A. Malmqvist, V. Veryazov, and P.-O. Widmark, J. Phys. Chem. A 109, 6575 (2005).
   actinides:   B. O. Roos, R. Lindh, P.-A. Malmqvist, V. Veryazov, and P.-O. Widmark, Chem. Phys. Letters 409, 295 (2005).
   lanthanides: B. O. Roos, R. Lindh, P.-A. Malmqvist, V. Veryazov, P.-O. Widmark and A. C. Borin, J. Phys. Chem. A 112, 11431 (2008).

================================================================================
                                        WARNINGS
                       Please study these warnings very carefully!
================================================================================


WARNING: your system is open-shell and RHF/RKS was chosen
  ===> : WILL SWITCH to UHF/UKS


================================================================================
                                       INPUT FILE
================================================================================
NAME = rhh2_cpks.inp
|  1> !B3LYP ANO-RCC-TZP SOMF(1X) LARGEPRINT PrintMOs
|  2> 
|  3> %METHOD
|  4>  Functional B3LYP_G
|  5>  RI false
|  6> END
|  7> 
|  8> %SCF
|  9>  MaxIter 500			# Max. no. of SCF iterations
| 10>  Thresh 1e-12			# Threshold for neglecting integrals
| 11>  TolE 1e-8			# Energy convergence threshold
| 12> END
| 13> 
| 14> %EPRNMR 			# Control of EPR and NMR calculations
| 15>  gtensor 1			# Calculate the g-tensor 
| 16>  ori CenterOfNucCharge		# origin for magnetic properties: CenterOfElCharge, CenterOfNucCharge
| 17>  printlevel 4			# detailed information
| 18> END
| 19> 
| 20> * gzmtfile 0 2 rhh2.gzmt 	# Coordinates
| 21> 
| 22> 
| 23>                          ****END OF INPUT****
================================================================================

                       ****************************
                       * Single Point Calculation *
                       ****************************

---------------------------------
CARTESIAN COORDINATES (ANGSTROEM)
---------------------------------
  Rh     0.000000    0.000000    0.000000
  H      1.510000    0.000000    0.000000
  H      0.157838    1.501728    0.000000

----------------------------
CARTESIAN COORDINATES (A.U.)
----------------------------
  NO LB      ZA    FRAG     MASS         X           Y           Z
   0 Rh   45.0000    0   102.910    0.000000    0.000000    0.000000
   1 H     1.0000    0     1.008    2.853486    0.000000    0.000000
   2 H     1.0000    0     1.008    0.298271    2.837855    0.000000

--------------------------------
INTERNAL COORDINATES (ANGSTROEM)
--------------------------------
 Rh     0   0   0     0.000000000000     0.00000000     0.00000000
 H      1   0   0     1.510000000000     0.00000000     0.00000000
 H      1   2   0     1.510000000000    84.00000000     0.00000000

---------------------------
INTERNAL COORDINATES (A.U.)
---------------------------
 Rh     0   0   0     0.000000000000     0.00000000     0.00000000
 H      1   0   0     2.853486462221     0.00000000     0.00000000
 H      1   2   0     2.853486462221    84.00000000     0.00000000

---------------------
BASIS SET INFORMATION
---------------------
There are 2 groups of distinct atoms

 Group   1 Type Rh  : 147s108p52d12f4g contracted to 7s6p4d2f1g pattern {21212121212121/181818181818/13131313/66/4}
 Group   2 Type H   : 32s12p6d contracted to 4s3p2d pattern {8888/444/33}

Atom   0Rh   basis set group =>   1
Atom   1H    basis set group =>   2
Atom   2H    basis set group =>   2

-------------------------
BASIS SET IN INPUT FORMAT
-------------------------

 # Basis set for element : H 
 NewGTO H 
 S 8 
   1     188.6144500000      0.0009638500
   2      28.2765960000      0.0074919600
   3       6.4248300000      0.0375954101
   4       1.8150410000      0.1433949804
   5       0.5910630000      0.3486363010
   6       0.2121490000      0.4382973612
   7       0.0798910000      0.1651066105
   8       0.0279620000      0.0210228701
 S 8 
   1     188.6144500000     -0.0013119000
   2      28.2765960000     -0.0103451000
   3       6.4248300000     -0.0504952998
   4       1.8150410000     -0.2073854991
   5       0.5910630000     -0.4350884981
   6       0.2121490000     -0.0247296999
   7       0.0798910000      0.3225259886
   8       0.0279620000      0.7072753770
 S 8 
   1     188.6144500000      0.0024224000
   2      28.2765960000      0.0203381700
   3       6.4248300000      0.0896393498
   4       1.8150410000      0.4422907090
   5       0.5910630000      0.5757143887
   6       0.2121490000     -0.9802889977
   7       0.0798910000     -0.6721537984
   8       0.0279620000      1.1417684974
 S 8 
   1     188.6144500000     -0.0115701006
   2      28.2765960000     -0.0837154045
   3       6.4248300000     -0.4451663240
   4       1.8150410000     -1.1462710617
   5       0.5910630000      2.5031872348
   6       0.2121490000     -1.5828490853
   7       0.0798910000      0.0309656917
   8       0.0279620000      0.3086286566
 P 4 
   1       2.3050000000      0.1127901896
   2       0.8067500000      0.4185075284
   3       0.2823620000      0.4700077282
   4       0.0988270000      0.1826260293
 P 4 
   1       2.3050000000     -0.2108687968
   2       0.8067500000     -0.5943795909
   3       0.2823620000      0.0896888786
   4       0.0988270000      0.8611633869
 P 4 
   1       2.3050000000      0.7599500731
   2       0.8067500000      0.1646158920
   3       0.2823620000     -1.3710139334
   4       0.0988270000      1.0593154486
 D 3 
   1       1.8190000000      0.2705134090
   2       0.7276000000      0.5510124980
   3       0.2910400000      0.3310866388
 D 3 
   1       1.8190000000     -0.7938035094
   2       0.7276000000     -0.0914252011
   3       0.2910400000      0.8620033502
  end;

 # Basis set for element : Rh
 NewGTO Rh
 S 21 
   1  25045890.3999999985      0.0002198100
   2  3516802.1400000001      0.0006467400
   3  711829.4370000000      0.0018321400
   4  177418.7450000000      0.0047083400
   5   51373.0591000000      0.0117193501
   6   16667.3080000000      0.0288471602
   7    5911.2853500000      0.0704701206
   8    2247.4207500000      0.1625841913
   9     901.2853910000      0.3116681525
  10     377.3045940000      0.3818558431
  11     162.8015410000      0.1871199315
  12      69.4371914000      0.0118291401
  13      31.5557514000      0.0022945900
  14      14.5294686000     -0.0017653700
  15       6.6916628700      0.0010888100
  16       3.0380734300     -0.0006339400
  17       1.2980127700      0.0003109300
  18       0.5126478200     -0.0001332000
  19       0.1796213400      0.0000534500
  20       0.0536559000     -0.0000230100
  21       0.0214623600      0.0000085400
 S 21 
   1  25045890.3999999985     -0.0000739400
   2  3516802.1400000001     -0.0002178400
   3  711829.4370000000     -0.0006184900
   4  177418.7450000000     -0.0015972600
   5   51373.0591000000     -0.0040069200
   6   16667.3080000000     -0.0100295501
   7    5911.2853500000     -0.0252236402
   8    2247.4207500000     -0.0621620806
   9     901.2853910000     -0.1363139913
  10     377.3045940000     -0.2222013821
  11     162.8015410000     -0.1151471411
  12      69.4371914000      0.4268042040
  13      31.5557514000      0.6121685757
  14      14.5294686000      0.1396865913
  15       6.6916628700      0.0066216401
  16       3.0380734300     -0.0016555200
  17       1.2980127700      0.0009020900
  18       0.5126478200     -0.0005100900
  19       0.1796213400      0.0002030000
  20       0.0536559000     -0.0000872700
  21       0.0214623600      0.0000331700
 S 21 
   1  25045890.3999999985      0.0000318300
   2  3516802.1400000001      0.0000938000
   3  711829.4370000000      0.0002664100
   4  177418.7450000000      0.0006884300
   5   51373.0591000000      0.0017291100
   6   16667.3080000000      0.0043374200
   7    5911.2853500000      0.0109566601
   8    2247.4207500000      0.0272473802
   9     901.2853910000      0.0609998305
  10     377.3045940000      0.1038809108
  11     162.8015410000      0.0573366205
  12      69.4371914000     -0.2877527023
  13      31.5557514000     -0.6119046349
  14      14.5294686000      0.0701401906
  15       6.6916628700      0.9017749472
  16       3.0380734300      0.3100905825
  17       1.2980127700     -0.0038528700
  18       0.5126478200      0.0054749500
  19       0.1796213400     -0.0017731500
  20       0.0536559000      0.0007541700
  21       0.0214623600     -0.0002832300
 S 21 
   1  25045890.3999999985     -0.0000130200
   2  3516802.1400000001     -0.0000383800
   3  711829.4370000000     -0.0001090300
   4  177418.7450000000     -0.0002816100
   5   51373.0591000000     -0.0007083800
   6   16667.3080000000     -0.0017736400
   7    5911.2853500000     -0.0045004800
   8    2247.4207500000     -0.0111518200
   9     901.2853910000     -0.0252580600
  10     377.3045940000     -0.0428390600
  11     162.8015410000     -0.0251505600
  12      69.4371914000      0.1314833200
  13      31.5557514000      0.2877976299
  14      14.5294686000     -0.0245727500
  15       6.6916628700     -0.7875629198
  16       3.0380734300     -0.3020993099
  17       1.2980127700      0.9779738697
  18       0.5126478200      0.4390974599
  19       0.1796213400     -0.0074191700
  20       0.0536559000      0.0088888200
  21       0.0214623600     -0.0025946300
 S 21 
   1  25045890.3999999985      0.0000031600
   2  3516802.1400000001      0.0000093000
   3  711829.4370000000      0.0000264400
   4  177418.7450000000      0.0000682600
   5   51373.0591000000      0.0001719100
   6   16667.3080000000      0.0004295400
   7    5911.2853500000      0.0010937300
   8    2247.4207500000      0.0026976600
   9     901.2853910000      0.0061566300
  10     377.3045940000      0.0103377800
  11     162.8015410000      0.0063364300
  12      69.4371914000     -0.0329311100
  13      31.5557514000     -0.0700378300
  14      14.5294686000      0.0023657600
  15       6.6916628700      0.2241668601
  16       3.0380734300      0.0678383800
  17       1.2980127700     -0.3417292901
  18       0.5126478200     -0.3397119501
  19       0.1796213400      0.3546752201
  20       0.0536559000      0.7123898903
  21       0.0214623600      0.1798953801
 S 21 
   1  25045890.3999999985     -0.0000049400
   2  3516802.1400000001     -0.0000145600
   3  711829.4370000000     -0.0000414100
   4  177418.7450000000     -0.0001067200
   5   51373.0591000000     -0.0002696800
   6   16667.3080000000     -0.0006699400
   7    5911.2853500000     -0.0017217500
   8    2247.4207500000     -0.0041918600
   9     901.2853910000     -0.0097509800
  10     377.3045940000     -0.0159053300
  11     162.8015410000     -0.0107822600
  12      69.4371914000      0.0545648300
  13      31.5557514000      0.1064335700
  14      14.5294686000      0.0019480400
  15       6.6916628700     -0.3941873998
  16       3.0380734300     -0.0619915900
  17       1.2980127700      0.7642233697
  18       0.5126478200      0.0571629900
  19       0.1796213400     -0.9513430796
  20       0.0536559000     -0.5364655398
  21       0.0214623600      1.3007954795
 S 21 
   1  25045890.3999999985      0.0000124500
   2  3516802.1400000001      0.0000366100
   3  711829.4370000000      0.0001044500
   4  177418.7450000000      0.0002674600
   5   51373.0591000000      0.0006843100
   6   16667.3080000000      0.0016634500
   7    5911.2853500000      0.0044242900
   8    2247.4207500000      0.0102528500
   9     901.2853910000      0.0255926000
  10     377.3045940000      0.0372767500
  11     162.8015410000      0.0352497500
  12      69.4371914000     -0.1642364300
  13      31.5557514000     -0.2231281000
  14      14.5294686000     -0.0904878400
  15       6.6916628700      1.3662892797
  16       3.0380734300     -0.5714993199
  17       1.2980127700     -2.0910643896
  18       0.5126478200      2.3822389195
  19       0.1796213400     -0.1312448300
  20       0.0536559000     -1.5693657897
  21       0.0214623600      1.2143019498
 P 18 
   1  653796.0400000000      0.0000347500
   2   95338.4754000000      0.0001543600
   3   20976.5777000000      0.0006538900
   4    5974.8713900000      0.0026855300
   5    2047.9860100000      0.0104583501
   6     798.6160450000      0.0367460903
   7     341.1370140000      0.1083715609
   8     155.5238270000      0.2452729320
   9      74.1243186000      0.3759929430
  10      36.3871663000      0.3095956825
  11      17.7649289000      0.0955289008
  12       8.7304082200      0.0047566600
  13       4.3341952900      0.0013151000
  14       1.9631631200     -0.0005264200
  15       0.8804620900      0.0002014200
  16       0.3586440600     -0.0001118800
  17       0.1434576200      0.0000450600
  18       0.0573830400     -0.0000144200
 P 18 
   1  653796.0400000000     -0.0000155200
   2   95338.4754000000     -0.0000690000
   3   20976.5777000000     -0.0002930900
   4    5974.8713900000     -0.0012073800
   5    2047.9860100000     -0.0047424600
   6     798.6160450000     -0.0168975199
   7     341.1370140000     -0.0514827098
   8     155.5238270000     -0.1220569294
   9      74.1243186000     -0.1997376591
  10      36.3871663000     -0.1293060694
  11      17.7649289000      0.2299191289
  12       8.7304082200      0.5461780474
  13       4.3341952900      0.3327260984
  14       1.9631631200      0.0423888498
  15       0.8804620900     -0.0006962500
  16       0.3586440600      0.0008568700
  17       0.1434576200     -0.0002669000
  18       0.0573830400      0.0000805300
 P 18 
   1  653796.0400000000      0.0000059700
   2   95338.4754000000      0.0000265400
   3   20976.5777000000      0.0001130300
   4    5974.8713900000      0.0004641500
   5    2047.9860100000      0.0018349700
   6     798.6160450000      0.0065157200
   7     341.1370140000      0.0201039801
   8     155.5238270000      0.0476633502
   9      74.1243186000      0.0801243604
  10      36.3871663000      0.0459010602
  11      17.7649289000     -0.1193906805
  12       8.7304082200     -0.3224542414
  13       4.3341952900     -0.1511121307
  14       1.9631631200      0.4556441820
  15       0.8804620900      0.5792494826
  16       0.3586440600      0.1690238207
  17       0.1434576200     -0.0011066900
  18       0.0573830400      0.0025848900
 P 18 
   1  653796.0400000000     -0.0000026400
   2   95338.4754000000     -0.0000117300
   3   20976.5777000000     -0.0000500700
   4    5974.8713900000     -0.0002050900
   5    2047.9860100000     -0.0008138800
   6     798.6160450000     -0.0028799400
   7     341.1370140000     -0.0089377300
   8     155.5238270000     -0.0211146399
   9      74.1243186000     -0.0358649398
  10      36.3871663000     -0.0196822299
  11      17.7649289000      0.0573051097
  12       8.7304082200      0.1506617992
  13       4.3341952900      0.0713170096
  14       1.9631631200     -0.3429869182
  15       0.8804620900     -0.2818087385
  16       0.3586440600      0.2733038585
  17       0.1434576200      0.5446532171
  18       0.0573830400      0.3761652580
 P 18 
   1  653796.0400000000      0.0000060000
   2   95338.4754000000      0.0000265400
   3   20976.5777000000      0.0001140200
   4    5974.8713900000      0.0004621700
   5    2047.9860100000      0.0018599800
   6     798.6160450000      0.0064845100
   7     341.1370140000      0.0205251501
   8     155.5238270000      0.0475860801
   9      74.1243186000      0.0833228403
  10      36.3871663000      0.0403853201
  11      17.7649289000     -0.1457557004
  12       8.7304082200     -0.3497265911
  13       4.3341952900     -0.1483814505
  14       1.9631631200      1.3112795640
  15       0.8804620900     -0.4766736515
  16       0.3586440600     -0.9280568828
  17       0.1434576200      0.2279252907
  18       0.0573830400      0.6118930319
 P 18 
   1  653796.0400000000     -0.0000069200
   2   95338.4754000000     -0.0000296900
   3   20976.5777000000     -0.0001364900
   4    5974.8713900000     -0.0004947200
   5    2047.9860100000     -0.0023041300
   6     798.6160450000     -0.0067635600
   7     341.1370140000     -0.0261162399
   8     155.5238270000     -0.0476930299
   9      74.1243186000     -0.1167617197
  10      36.3871663000      0.0069308500
  11      17.7649289000      0.0980075898
  12       8.7304082200      0.6490695485
  13       4.3341952900     -0.4384865490
  14       1.9631631200     -1.3678205869
  15       0.8804620900      2.0361069053
  16       0.3586440600     -0.6353973385
  17       0.1434576200     -1.0996692575
  18       0.0573830400      1.1332349174
 D 13 
   1     901.2853910000      0.0010968200
   2     377.3045940000      0.0040181200
   3     162.8015410000      0.0231185101
   4      69.4371914000      0.0877194303
   5      31.5557514000      0.2287217507
   6      14.5294686000      0.3902557912
   7       6.6916628700      0.3696295011
   8       3.0380734300      0.1339326104
   9       1.2980127700      0.0105549400
  10       0.5126478200      0.0014107100
  11       0.1796213400      0.0001282800
  12       0.0718485300      0.0001638700
  13       0.0287394100     -0.0000321700
 D 13 
   1     901.2853910000     -0.0003334800
   2     377.3045940000     -0.0012107500
   3     162.8015410000     -0.0070720900
   4      69.4371914000     -0.0269476001
   5      31.5557514000     -0.0714978702
   6      14.5294686000     -0.1172169503
   7       6.6916628700     -0.0894489002
   8       3.0380734300      0.1452789103
   9       1.2980127700      0.4159771309
  10       0.5126478200      0.4369963009
  11       0.1796213400      0.2358612905
  12       0.0718485300      0.0316145601
  13       0.0287394100      0.0088046100
 D 13 
   1     901.2853910000      0.0003836300
   2     377.3045940000      0.0012168200
   3     162.8015410000      0.0080179000
   4      69.4371914000      0.0282844299
   5      31.5557514000      0.0812697996
   6      14.5294686000      0.1187058494
   7       6.6916628700      0.1166824994
   8       3.0380734300     -0.2511059287
   9       1.2980127700     -0.5827291770
  10       0.5126478200      0.1854021991
  11       0.1796213400      0.6104835369
  12       0.0718485300      0.1977514990
  13       0.0287394100      0.0380612398
 D 13 
   1     901.2853910000     -0.0005571400
   2     377.3045940000     -0.0009481100
   3     162.8015410000     -0.0110547800
   4      69.4371914000     -0.0279838701
   5      31.5557514000     -0.1120934105
   6      14.5294686000     -0.1050353704
   7       6.6916628700     -0.2407160610
   8       3.0380734300      0.7079546830
   9       1.2980127700      0.2437613410
  10       0.5126478200     -1.0163287744
  11       0.1796213400      0.3132947613
  12       0.0718485300      0.4975727421
  13       0.0287394100      0.0766339203
 F 6 
   1       8.1283430000      0.0103278000
   2       3.2513370000      0.1708872901
   3       1.3005350000      0.5264977104
   4       0.5202140000      0.4040199303
   5       0.2080850000      0.1303551401
   6       0.0832340000      0.0140623900
 F 6 
   1       8.1283430000     -0.0735813299
   2       3.2513370000      0.4319943397
   3       1.3005350000      0.5479151896
   4       0.5202140000     -0.6333129395
   5       0.2080850000     -0.3715726797
   6       0.0832340000     -0.0714729699
 G 4 
   1       4.3258920000      0.0743307305
   2       1.7303570000      0.6159425639
   3       0.6921420000      0.4249004627
   4       0.2768560000      0.0994792506
  end;

------------------------------------------------------------------------------
                             ORCA STARTUP CALCULATIONS
------------------------------------------------------------------------------
------------------------------------------------------------------------------
                   ___                                                        
                  /   \      - P O W E R E D   B Y -                         
                 /     \                                                     
                 |  |  |   _    _      __       _____    __    __             
                 |  |  |  | |  | |    /  \     |  _  \  |  |  /  |          
                  \  \/   | |  | |   /    \    | | | |  |  | /  /          
                 / \  \   | |__| |  /  /\  \   | |_| |  |  |/  /          
                |  |  |   |  __  | /  /__\  \  |    /   |      \           
                |  |  |   | |  | | |   __   |  |    \   |  |\   \          
                \     /   | |  | | |  |  |  |  | |\  \  |  | \   \       
                 \___/    |_|  |_| |__|  |__|  |_| \__\ |__|  \__/        
                                                                              
                      - O R C A' S   B I G   F R I E N D -                    
                                      &                                       
                       - I N T E G R A L  F E E D E R -                       
                                                                              
 v1 FN, 2020, v2 2021, v3 2022-2024                                           
------------------------------------------------------------------------------


----------------------
SHARK INTEGRAL PACKAGE
----------------------

Number of atoms                             ...      3
Number of basis functions                   ...    114
Number of shells                            ...     38
Maximum angular momentum                    ...      4
Integral batch strategy                     ... SHARK/LIBINT Hybrid
RI-J (if used) integral strategy            ... SPLIT-RIJ (Revised 2003 algorithm where possible)
Printlevel                                  ...      1
Contraction scheme used                     ... GENERAL contraction
Prescreening option                         ... SCHWARTZ
   Thresh                                   ... 1.000e-12
   Tcut                                     ... 1.000e-11
   Tpresel                                  ... 1.000e-11 
Coulomb Range Separation                    ... NOT USED
Exchange Range Separation                   ... NOT USED
Multipole approximations                    ... NOT USED
Finite Nucleus Model                        ... NOT USED
CABS basis                                  ... NOT available
Auxiliary Coulomb fitting basis             ... NOT available
Auxiliary J/K fitting basis                 ... NOT available
Auxiliary Correlation fitting basis         ... NOT available
Auxiliary 'external' fitting basis          ... NOT available

Checking pre-screening integrals            ... done (  0.0 sec) Dimension = 38
Calculate PGC pre-screening integrals       ... done (  0.1 sec) Dimension = 89
Calculate PGC overlap integrals             ... done (  0.2 sec) Dimension = 89
Check shell pair data                       ... done (  0.0 sec)
Shell pair information
Shell pair cut-off parameter TPreSel        ...   1.0e-11
Total number of shell pairs                 ...       741
Shell pairs after pre-screening             ...         0
Total number of primitive shell pairs       ...     92684
Primitive shell pairs kept                  ...      4587

Calculating one electron integrals          ... done (  0.0 sec)
Calculating Nuclear repulsion               ... done (  0.0 sec) ENN=     31.802231927989 Eh

Diagonalization of the overlap matrix:
Smallest eigenvalue                        ... 6.052e-04
Time for diagonalization                   ...    0.001 sec
Threshold for overlap eigenvalues          ... 1.000e-07
Number of eigenvalues below threshold      ... 0
Time for construction of square roots      ...    0.001 sec
Total time needed                          ...    0.003 sec

-------------------
DFT GRID GENERATION
-------------------

General Integration Accuracy     IntAcc      ... 4.388
Radial Grid Type                 RadialGrid  ... OptM3 with GC (2021)
Angular Grid (max. ang.)         AngularGrid ... 4 (Lebedev-302)
Angular grid pruning method      GridPruning ... 4 (adaptive)
Weight generation scheme         WeightScheme... mBecke (2022)
Basis function cutoff            BFCut       ... 1.0000e-10
Integration weight cutoff        WCut        ... 1.0000e-14
Partially contracted basis set               ... off
Rotationally invariant grid construction     ... off
Angular grids for H and He will be reduced by one unit
Diffuse basis detected: some atoms will have their outermost
                        angular grid increased by 1.
Core-polarized basis detected: some atoms will have their core
                               angular grid increased.
Steep s-basis detected: some atoms will have their radial
                        grid points doubled.

Total number of grid points                  ...    34545
Total number of batches                      ...      541
Average number of points per batch           ...       63
Average number of grid points per atom       ...    11515
Initializing property integral containers    ... done (  0.0 sec)

SHARK setup successfully completed in   3.8 seconds

Maximum memory used throughout the entire STARTUP-calculation: 328.6 MB
-------------------------------------------------------------------------------
                                 ORCA GUESS
                   Start orbitals & Density for SCF / CASSCF
-------------------------------------------------------------------------------

------------
SCF SETTINGS
------------
Hamiltonian:
 Density Functional     Method          .... DFT(GTOs)
 Exchange Functional    Exchange        .... B88
   X-Alpha parameter    XAlpha          ....  0.666667
   Becke's b parameter  XBeta           ....  0.004200
 Correlation Functional Correlation     .... LYP
 LDA part of GGA corr.  LDAOpt          .... VWN-3
 Gradients option       PostSCFGGA      .... off
 Hybrid DFT is turned on
   Fraction HF Exchange ScalHFX         ....  0.200000
   Scaling of DF-GGA-X  ScalDFX         ....  0.720000
   Scaling of DF-GGA-C  ScalDFC         ....  0.810000
   Scaling of DF-LDA-C  ScalLDAC        ....  1.000000
   Perturbative correction              ....  0.000000
   NL short-range parameter             ....  4.800000


General Settings:
 Integral files         IntName         .... rhh2_cpks
 Hartree-Fock type      HFTyp           .... UHF
 Total Charge           Charge          ....    0
 Multiplicity           Mult            ....    2
 Number of Electrons    NEL             ....   47
 Basis Dimension        Dim             ....  114
 Nuclear Repulsion      ENuc            ....     31.8022319280 Eh

Convergence Acceleration:
 AO-DIIS                CNVDIIS         .... on
   Start iteration      DIISMaxIt       ....    12
   Startup error        DIISStart       ....  0.200000
   # of expansion vecs  DIISMaxEq       ....     5
   Bias factor          DIISBfac        ....   1.050
   Max. coefficient     DIISMaxC        ....  10.000
 MO-DIIS                CNVKDIIS        .... off
 Trust-Rad. Augm. Hess. CNVTRAH         .... auto
   Auto Start mean grad. ratio tolernc. ....  1.125000
   Auto Start start iteration           ....    50
   Auto Start num. interpolation iter.  ....    10
   Max. Number of Micro iterations      ....    24
   Max. Number of Macro iterations      .... Maxiter - #DIIS iter
   Number of Davidson start vectors     ....     2
   Converg. threshold    (grad. norm)   ....   5.000e-05
   Grad. Scal. Fac. for Micro threshold ....   0.100
   Minimum threshold for Micro iter.    ....   1.000e-02
   NR start threshold (gradient norm)   ....   1.000e-04
   Initial trust radius                 ....   0.400
   Minimum AH scaling param. (alpha)    ....   1.000
   Maximum AH scaling param. (alpha)    .... 1000.000
   Quad. conv. algorithm                .... NR
   White noise on init. David. guess    .... on
   Maximum white noise                  ....   0.010
   Pseudo random numbers                .... off
   Inactive MOs                         .... canonical
   Orbital update algorithm             .... Taylor
   Preconditioner                       .... Diag
   Full preconditioner red. dimension   ....   250
 SOSCF                  CNVSOSCF        .... on
   Start iteration      SOSCFMaxIt      ....   150
   Startup grad/error   SOSCFStart      ....  0.003300
   Hessian update       SOSCFHessUp     .... L-BFGS
 Level Shifting         CNVShift        .... on
   Level shift para.    LevelShift      ....    0.2500
   Turn off err/grad.   ShiftErr        ....    0.0010
 Zerner damping         CNVZerner       .... off
 Static damping         CNVDamp         .... on
   Fraction old density DampFac         ....    0.7000
   Max. Damping (<1)    DampMax         ....    0.9800
   Min. Damping (>=0)   DampMin         ....    0.0000
   Turn off err/grad.   DampErr         ....    0.1000

SCF Procedure:
 Maximum # iterations   MaxIter         ....   500
 SCF integral mode      SCFMode         .... Direct
   Integral package                     .... SHARK and LIBINT hybrid scheme
 Reset frequency        DirectResetFreq ....    20
 Integral Threshold     Thresh          ....  1.000e-12 Eh
 Primitive CutOff       TCut            ....  1.000e-11 Eh

Convergence Tolerance:
 Convergence Check Mode ConvCheckMode   .... Total+1el-Energy
 Convergence forced     ConvForced      .... 0
 Energy Change          TolE            ....  1.000e-08 Eh
 1-El. energy change                    ....  1.000e-05 Eh
 Orbital Gradient       TolG            ....  5.000e-05
 Orbital Rotation angle TolX            ....  5.000e-05
 DIIS Error             TolErr          ....  1.000e-06

------------------------------
INITIAL GUESS: MODEL POTENTIAL
------------------------------
Loading Hartree-Fock densities                     ... done
Calculating cut-offs                               ... done
Initializing the effective Hamiltonian             ... done
Setting up the integral package (SHARK)            ... done
Starting the Coulomb interaction                   ... done (   0.5 sec)
Making the grid                                    ... done (   0.1 sec)
Mapping shells                                     ... done
Starting the XC term evaluation                    ... done (   0.1 sec)
  promolecular density results
     # of electrons  =     46.999320539
     EX              =   -134.663210218
     EC              =     -2.300828606
     EX+EC           =   -136.964038824
Transforming the Hamiltonian                       ... done (   0.0 sec)
Diagonalizing the Hamiltonian                      ... done (   0.0 sec)
Back transforming the eigenvectors                 ... done (   0.0 sec)
Now organizing SCF variables                       ... done
                      ------------------
                      INITIAL GUESS DONE (   0.8 sec)
                      ------------------
----------------------
INITIAL GUESS ORBITALS
----------------------
                      0         1         2         3         4         5   
                 -785.26190 -111.00831 -108.15877 -108.15867 -108.15798 -19.43330
                   1.00000   1.00000   1.00000   1.00000   1.00000   1.00000
                  --------  --------  --------  --------  --------  --------
  0Rh  1s         0.998466 -0.037590 -0.000000  0.000030  0.000000 -0.012957
  0Rh  2s         0.037184  1.007339 -0.000000  0.000466 -0.000000  0.082755
  0Rh  3s        -0.029379  0.102840 -0.000000  0.000994 -0.000000 -0.890515
  0Rh  4s        -0.040392  0.121998 -0.000000  0.003694 -0.000000  0.280704
  0Rh  5s        -0.072883  0.222881 -0.000000  0.003312  0.000000  0.558769
  0Rh  6s         0.023473 -0.072915  0.000000 -0.006515  0.000000 -0.178884
  0Rh  7s        -0.011682  0.037199  0.000000 -0.001012  0.000000  0.093653
  0Rh  1pz       -0.000000  0.000000  0.000000  0.000000  0.999891 -0.000000
  0Rh  1px       -0.000190  0.000751  0.669000 -0.743020 -0.000000  0.001448
  0Rh  1py       -0.000171  0.000677 -0.742941 -0.669071  0.000000  0.001304
  0Rh  2pz        0.000000 -0.000000  0.000000  0.000000  0.011392 -0.000000
  0Rh  2px       -0.002304  0.007084  0.006592 -0.008267 -0.000000  0.016122
  0Rh  2py       -0.002075  0.006379 -0.007321 -0.007444  0.000000  0.014517
  0Rh  3pz        0.000000 -0.000000 -0.000000 -0.000000 -0.005380 -0.000000
  0Rh  3px       -0.018012  0.055251 -0.012123  0.005840  0.000000  0.134615
  0Rh  3py       -0.016218  0.049748  0.013464  0.005259 -0.000000  0.121207
  0Rh  4pz        0.000000 -0.000000  0.000000  0.000000  0.000159 -0.000000
  0Rh  4px       -0.031321  0.095487 -0.016235  0.003600  0.000000  0.235796
  0Rh  4py       -0.028201  0.085977  0.018031  0.003243 -0.000000  0.212311
  0Rh  5pz        0.000000 -0.000000 -0.000000 -0.000000 -0.003950 -0.000000
  0Rh  5px        0.001468 -0.004909 -0.002159  0.002388  0.000000 -0.009991
  0Rh  5py        0.001322 -0.004420  0.002397  0.002150 -0.000000 -0.008996
  0Rh  6pz        0.000000  0.000000  0.000000  0.000000  0.005596 -0.000000
  0Rh  6px        0.002125 -0.006661  0.005800 -0.005615 -0.000000 -0.015770
  0Rh  6py        0.001913 -0.005998 -0.006442 -0.005056  0.000000 -0.014199
  0Rh  1dz2       0.000485 -0.001493  0.000000 -0.000054  0.000000 -0.003515
  0Rh  1dxz      -0.000000  0.000000 -0.000000  0.000000 -0.000031  0.000000
  0Rh  1dyz       0.000000  0.000000 -0.000000 -0.000000 -0.000028  0.000000
  0Rh  1dx2y2    -0.000010  0.000030 -0.000480  0.000005  0.000000  0.000071
  0Rh  1dxy      -0.000093  0.000282  0.000050  0.000050 -0.000000  0.000675
  0Rh  2dz2       0.010042 -0.030789  0.000000 -0.001836  0.000000 -0.074918
  0Rh  2dxz       0.000000 -0.000000 -0.000000  0.000000 -0.001013 -0.000000
  0Rh  2dyz       0.000000 -0.000000 -0.000000 -0.000000 -0.000912 -0.000000
  0Rh  2dx2y2    -0.000219  0.000656 -0.012082  0.000180  0.000000  0.001628
  0Rh  2dxy      -0.002087  0.006242  0.001270  0.001718 -0.000000  0.015490
  0Rh  3dz2       0.008301 -0.025251  0.000000 -0.001964  0.000000 -0.062170
  0Rh  3dxz       0.000000 -0.000000 -0.000000  0.000000 -0.000972 -0.000000
  0Rh  3dyz       0.000000 -0.000000 -0.000000 -0.000000 -0.000875 -0.000000
  0Rh  3dx2y2    -0.000205  0.000602 -0.011566  0.000190  0.000000  0.001520
  0Rh  3dxy      -0.001950  0.005726  0.001216  0.001811 -0.000000  0.014459
  0Rh  4dz2       0.000005  0.000217  0.000000 -0.000083 -0.000000 -0.000347
  0Rh  4dxz       0.000000 -0.000000  0.000000  0.000000  0.000071 -0.000000
  0Rh  4dyz       0.000000 -0.000000 -0.000000 -0.000000  0.000064 -0.000000
  0Rh  4dx2y2    -0.000029  0.000074 -0.000741  0.000011  0.000000  0.000205
  0Rh  4dxy      -0.000274  0.000702  0.000078  0.000103 -0.000000  0.001954
  0Rh  1f0       -0.000000  0.000000  0.000000  0.000000  0.000695  0.000000
  0Rh  1f+1       0.001826 -0.005615  0.001275 -0.000566 -0.000000 -0.013651
  0Rh  1f-1       0.001644 -0.005055 -0.001416 -0.000510  0.000000 -0.012292
  0Rh  1f+2      -0.000000 -0.000000  0.000000  0.000000 -0.000011 -0.000000
  0Rh  1f-2       0.000000  0.000000 -0.000000 -0.000000 -0.000109  0.000000
  0Rh  1f+3       0.001432 -0.004446  0.001787  0.000002 -0.000000 -0.010706
  0Rh  1f-3      -0.001972  0.006119  0.001299 -0.000002 -0.000000  0.014736
  0Rh  2f0        0.000000 -0.000000 -0.000000 -0.000000 -0.000825 -0.000000
  0Rh  2f+1      -0.001378  0.004189 -0.001276  0.000687  0.000000  0.010302
  0Rh  2f-1      -0.001241  0.003772  0.001417  0.000618 -0.000000  0.009275
  0Rh  2f+2       0.000000  0.000000 -0.000000 -0.000000  0.000014  0.000000
  0Rh  2f-2      -0.000000  0.000000  0.000000  0.000000  0.000135 -0.000000
  0Rh  2f+3      -0.001034  0.003203 -0.001675 -0.000004  0.000000  0.007774
  0Rh  2f-3       0.001423 -0.004409 -0.001217  0.000006  0.000000 -0.010701
  0Rh  1g0       -0.000327  0.001029 -0.000000  0.000135  0.000000  0.002446
  0Rh  1g+1      -0.000000  0.000000  0.000000 -0.000000  0.000187 -0.000000
  0Rh  1g-1      -0.000000  0.000000  0.000000  0.000000  0.000169  0.000000
  0Rh  1g+2       0.000007 -0.000022  0.000532 -0.000016 -0.000000 -0.000053
  0Rh  1g-2       0.000070 -0.000205 -0.000056 -0.000152  0.000000 -0.000503
  0Rh  1g+3       0.000000 -0.000000  0.000000 -0.000000  0.000097 -0.000000
  0Rh  1g-3       0.000000  0.000000 -0.000000 -0.000000 -0.000133  0.000000
  0Rh  1g+4       0.000675 -0.002108 -0.000037 -0.000231  0.000000 -0.004962
  0Rh  1g-4      -0.000143  0.000448 -0.000175  0.000049  0.000000  0.001055
  1H   1s         0.044999 -0.137430  0.029795 -0.005606 -0.000000 -0.339917
  1H   2s         0.020692 -0.062962  0.010202  0.001494 -0.000000 -0.158540
  1H   3s        -0.010447  0.031952 -0.007878  0.002905  0.000000  0.077321
  1H   4s        -0.001162  0.003464 -0.000583 -0.000013  0.000000  0.008757
  1H   1pz       -0.000000  0.000000  0.000000 -0.000000  0.001525  0.000000
  1H   1px       -0.022739  0.070085 -0.013889  0.002859  0.000000  0.170990
  1H   1py        0.000407 -0.001057 -0.001138 -0.001316  0.000000 -0.002936
  1H   2pz       -0.000000  0.000000 -0.000000 -0.000000  0.000370  0.000000
  1H   2px       -0.009345  0.028723 -0.005628  0.000812  0.000000  0.071313
  1H   2py        0.000267 -0.000703 -0.000178 -0.000382  0.000000 -0.001875
  1H   3pz       -0.000000  0.000000 -0.000000 -0.000000 -0.000639  0.000000
  1H   3px        0.003473 -0.010682  0.001675 -0.000422 -0.000000 -0.024473
  1H   3py        0.000030 -0.000098  0.000560  0.000350  0.000000 -0.000197
  1H   1dz2      -0.003571  0.011080 -0.001286 -0.000145  0.000000  0.026482
  1H   1dxz       0.000000 -0.000000 -0.000000  0.000000 -0.000926 -0.000000
  1H   1dyz      -0.000000 -0.000000  0.000000  0.000000  0.000037 -0.000000
  1H   1dx2y2     0.006390 -0.019800  0.002245  0.000159 -0.000000 -0.047331
  1H   1dxy      -0.000009 -0.000015  0.000700  0.000683 -0.000000  0.000067
  1H   2dz2      -0.001709  0.005319 -0.000481 -0.000176  0.000000  0.012790
  1H   2dxz       0.000000 -0.000000 -0.000000  0.000000 -0.000723 -0.000000
  1H   2dyz      -0.000000 -0.000000  0.000000  0.000000  0.000012 -0.000000
  1H   2dx2y2     0.003108 -0.009625  0.000785  0.000060 -0.000000 -0.023212
  1H   2dxy      -0.000009  0.000005  0.000577  0.000419 -0.000000  0.000033
  2H   1s         0.044999 -0.137430 -0.029794 -0.005608  0.000000 -0.339919
  2H   2s         0.020692 -0.062963 -0.010203  0.001493  0.000000 -0.158541
  2H   3s        -0.010447  0.031952  0.007877  0.002905 -0.000000  0.077321
  2H   4s        -0.001162  0.003464  0.000583 -0.000013 -0.000000  0.008757
  2H   1pz       -0.000000  0.000000  0.000000  0.000000  0.001525  0.000000
  2H   1px       -0.001973  0.006274  0.002583 -0.001009 -0.000000  0.014952
  2H   1py       -0.022657  0.069812  0.013693  0.002982 -0.000000  0.170362
  2H   2pz       -0.000000  0.000000  0.000000  0.000000  0.000370  0.000000
  2H   2px       -0.000711  0.002303  0.000765 -0.000295 -0.000000  0.005588
  2H   2py       -0.009321  0.028639  0.005578  0.000848 -0.000000  0.071118
  2H   3pz       -0.000000 -0.000000 -0.000000 -0.000000 -0.000639  0.000000
  2H   3px        0.000393 -0.001214 -0.000732  0.000304  0.000000 -0.002754
  2H   3py        0.003450 -0.010613 -0.001607 -0.000456  0.000000 -0.024318
  2H   1dz2      -0.003571  0.011080  0.001286 -0.000145 -0.000000  0.026483
  2H   1dxz       0.000000  0.000000 -0.000000 -0.000000 -0.000060 -0.000000
  2H   1dyz       0.000000 -0.000000 -0.000000 -0.000000 -0.000925 -0.000000
  2H   1dx2y2    -0.006252  0.019364  0.002051 -0.000013 -0.000000  0.046311
  2H   1dxy       0.001320 -0.004131 -0.001151  0.000701  0.000000 -0.009774
  2H   2dz2      -0.001709  0.005319  0.000481 -0.000176 -0.000000  0.012790
  2H   2dxz       0.000000  0.000000 -0.000000 -0.000000 -0.000064 -0.000000
  2H   2dyz       0.000000 -0.000000 -0.000000 -0.000000 -0.000721 -0.000000
  2H   2dx2y2    -0.003042  0.009415  0.000648  0.000028 -0.000000  0.022711
  2H   2dxy       0.000637 -0.001997 -0.000727  0.000422  0.000000 -0.004793
                      6         7         8         9        10        11   
                 -17.33697 -17.33686 -17.33535 -11.17759 -11.17750 -11.17698
                   1.00000   1.00000   1.00000   1.00000   1.00000   1.00000
                  --------  --------  --------  --------  --------  --------
  0Rh  1s        -0.000074 -0.000000 -0.000000  0.000000  0.000004  0.000000
  0Rh  2s        -0.000705 -0.000004 -0.000000  0.000000  0.000035  0.000000
  0Rh  3s        -0.001103 -0.000006 -0.000000  0.000001  0.000107  0.000000
  0Rh  4s        -0.009369 -0.000050 -0.000000  0.000004  0.000522  0.000000
  0Rh  5s        -0.008124 -0.000043 -0.000000  0.000009  0.001402  0.000000
  0Rh  6s         0.016217  0.000086 -0.000000 -0.000001  0.000077  0.000000
  0Rh  7s         0.002380  0.000013 -0.000000  0.000000 -0.000027  0.000000
  0Rh  1pz       -0.000000 -0.000000  0.011260  0.000000  0.000000 -0.000002
  0Rh  1px        0.008356 -0.007303 -0.000000  0.000024  0.000000 -0.000000
  0Rh  1py        0.007445  0.008200  0.000000 -0.000026  0.000000  0.000000
  0Rh  2pz        0.000000  0.000000 -0.999815  0.000000  0.000000 -0.000384
  0Rh  2px       -0.747068  0.667187  0.000000  0.000550 -0.000291 -0.000000
  0Rh  2py       -0.665481 -0.748943 -0.000000 -0.000613 -0.000255  0.000000
  0Rh  3pz        0.000000  0.000000 -0.019942  0.000000  0.000000  0.000121
  0Rh  3px       -0.019670  0.031118  0.000000  0.002062  0.000262 -0.000000
  0Rh  3py       -0.017376 -0.034769 -0.000000 -0.002286  0.000259  0.000000
  0Rh  4pz       -0.000000 -0.000000  0.003223  0.000000  0.000000  0.000589
  0Rh  4px       -0.006908  0.032109  0.000000  0.003465  0.000868  0.000000
  0Rh  4py       -0.005875 -0.035733 -0.000000 -0.003838  0.000820  0.000000
  0Rh  5pz        0.000000  0.000000 -0.012862  0.000000 -0.000000  0.000504
  0Rh  5px       -0.008086  0.007439  0.000000 -0.000617  0.000468  0.000000
  0Rh  5py       -0.007200 -0.008348 -0.000000  0.000690  0.000414  0.000000
  0Rh  6pz       -0.000000 -0.000000  0.014981 -0.000000 -0.000000  0.000285
  0Rh  6px        0.014589 -0.014295 -0.000000 -0.000636  0.000237  0.000000
  0Rh  6py        0.012982  0.016032  0.000000  0.000709  0.000206  0.000000
  0Rh  1dz2       0.000392  0.000002 -0.000000  0.000573 -0.102948 -0.000000
  0Rh  1dxz       0.000000 -0.000000 -0.000367 -0.000000 -0.000000  0.741197
  0Rh  1dyz       0.000000  0.000000 -0.000331 -0.000000 -0.000000  0.671272
  0Rh  1dx2y2    -0.000062  0.001439  0.000000 -0.993726  0.110000 -0.000000
  0Rh  1dxy      -0.000515 -0.000154 -0.000000  0.110634  0.988571  0.000000
  0Rh  2dz2       0.004450  0.000023  0.000000 -0.000001 -0.000190 -0.000000
  0Rh  2dxz      -0.000000  0.000000 -0.002290  0.000000  0.000000  0.000080
  0Rh  2dyz       0.000000  0.000000 -0.002062  0.000000  0.000000  0.000072
  0Rh  2dx2y2    -0.000548  0.025464  0.000000  0.002577 -0.000008 -0.000000
  0Rh  2dxy      -0.003909 -0.002698 -0.000000 -0.000271  0.000058  0.000000
  0Rh  3dz2       0.004613  0.000025  0.000000 -0.000003 -0.000036 -0.000000
  0Rh  3dxz      -0.000000  0.000000 -0.002128  0.000000  0.000000 -0.001436
  0Rh  3dyz       0.000000  0.000000 -0.001916  0.000000  0.000000 -0.001302
  0Rh  3dx2y2    -0.000555  0.024377  0.000000  0.004289 -0.000227 -0.000000
  0Rh  3dxy      -0.004028 -0.002584 -0.000000 -0.000464 -0.001924  0.000000
  0Rh  4dz2       0.000236  0.000001  0.000000  0.000001 -0.000369 -0.000000
  0Rh  4dxz      -0.000000 -0.000000  0.000126  0.000000  0.000000  0.001843
  0Rh  4dyz       0.000000  0.000000  0.000114  0.000000  0.000000  0.001669
  0Rh  4dx2y2    -0.000041  0.001828  0.000000 -0.002537  0.000291 -0.000000
  0Rh  4dxy      -0.000296 -0.000194 -0.000000  0.000283  0.002616  0.000000
  0Rh  1f0       -0.000000 -0.000000  0.001595 -0.000000 -0.000000  0.000054
  0Rh  1f+1       0.001354 -0.002688 -0.000000 -0.000268 -0.000016  0.000000
  0Rh  1f-1       0.001190  0.003000  0.000000  0.000298 -0.000018 -0.000000
  0Rh  1f+2      -0.000000 -0.000000 -0.000026  0.000000  0.000000  0.000003
  0Rh  1f-2      -0.000000  0.000000 -0.000250  0.000000  0.000000  0.000031
  0Rh  1f+3       0.000062 -0.003696 -0.000000 -0.000508 -0.000085  0.000000
  0Rh  1f-3      -0.000044 -0.002685 -0.000000 -0.000368  0.000122 -0.000000
  0Rh  2f0        0.000000  0.000000 -0.001790  0.000000  0.000000 -0.000142
  0Rh  2f+1      -0.001535  0.002624  0.000000  0.000254 -0.000015 -0.000000
  0Rh  2f-1      -0.001354 -0.002930 -0.000000 -0.000281 -0.000011  0.000000
  0Rh  2f+2       0.000000  0.000000  0.000031 -0.000000 -0.000000  0.000009
  0Rh  2f-2      -0.000000 -0.000000  0.000294 -0.000000 -0.000000  0.000089
  0Rh  2f+3      -0.000051  0.003413  0.000000  0.000569  0.000185 -0.000000
  0Rh  2f-3       0.000032  0.002480  0.000000  0.000410 -0.000261  0.000000
  0Rh  1g0       -0.000285 -0.000001 -0.000000 -0.000000  0.000001 -0.000000
  0Rh  1g+1      -0.000000 -0.000000  0.000395 -0.000000 -0.000000  0.000028
  0Rh  1g-1      -0.000000 -0.000000  0.000356 -0.000000 -0.000000  0.000025
  0Rh  1g+2       0.000039 -0.001030 -0.000000 -0.000138  0.000005  0.000000
  0Rh  1g-2       0.000313  0.000110  0.000000  0.000014  0.000032 -0.000000
  0Rh  1g+3       0.000000 -0.000000  0.000205 -0.000000 -0.000000  0.000020
  0Rh  1g-3       0.000000  0.000000 -0.000281  0.000000  0.000000 -0.000029
  0Rh  1g+4       0.000493  0.000084  0.000000 -0.000008 -0.000025  0.000000
  0Rh  1g-4      -0.000107  0.000383  0.000000 -0.000037  0.000005 -0.000000
  1H   1s         0.013884 -0.062637 -0.000000 -0.006825 -0.000879 -0.000000
  1H   2s        -0.003500 -0.020869 -0.000000 -0.002380 -0.000534 -0.000000
  1H   3s        -0.007282  0.017024  0.000000  0.001594  0.000155 -0.000000
  1H   4s        -0.000040  0.001303  0.000000  0.000001  0.000051  0.000000
  1H   1pz        0.000000 -0.000000  0.003426 -0.000000 -0.000000 -0.000138
  1H   1px       -0.007324  0.029286  0.000000  0.004016  0.000025 -0.000000
  1H   1py        0.002933  0.002468  0.000000 -0.000315 -0.000034 -0.000000
  1H   2pz        0.000000  0.000000  0.000719 -0.000000 -0.000000 -0.000527
  1H   2px       -0.002273  0.012106  0.000000  0.001631 -0.000054  0.000000
  1H   2py        0.000816  0.000238  0.000000 -0.000372 -0.000485 -0.000000
  1H   3pz        0.000000  0.000000 -0.001455  0.000000  0.000000 -0.000329
  1H   3px        0.001026 -0.003346 -0.000000 -0.000369 -0.000072  0.000000
  1H   3py       -0.000777 -0.001264 -0.000000 -0.000099 -0.000320  0.000000
  1H   1dz2       0.000264  0.002608  0.000000  0.000499 -0.000022 -0.000000
  1H   1dxz      -0.000000  0.000000 -0.002104  0.000000  0.000000 -0.000225
  1H   1dyz      -0.000000 -0.000000  0.000084 -0.000000 -0.000000  0.000033
  1H   1dx2y2    -0.000202 -0.004536 -0.000000 -0.000831  0.000003  0.000000
  1H   1dxy      -0.001520 -0.001579 -0.000000  0.000033 -0.000303  0.000000
  1H   2dz2       0.000357  0.000989  0.000000  0.000219 -0.000024 -0.000000
  1H   2dxz      -0.000000  0.000000 -0.001599  0.000000  0.000000 -0.000099
  1H   2dyz      -0.000000 -0.000000  0.000031 -0.000000 -0.000000  0.000013
  1H   2dx2y2    -0.000089 -0.001605 -0.000000 -0.000308  0.000001  0.000000
  1H   2dxy      -0.000920 -0.001246 -0.000000  0.000043 -0.000115  0.000000
  2H   1s         0.013215  0.062780  0.000000  0.006813 -0.000954 -0.000000
  2H   2s        -0.003723  0.020831  0.000000  0.002374 -0.000560 -0.000000
  2H   3s        -0.007100 -0.017101 -0.000000 -0.001592  0.000173 -0.000000
  2H   4s        -0.000026 -0.001303 -0.000000 -0.000001  0.000051  0.000000
  2H   1pz       -0.000000 -0.000000  0.003426 -0.000000 -0.000000 -0.000137
  2H   1px        0.002210 -0.005492 -0.000000 -0.000105 -0.000030 -0.000000
  2H   1py       -0.007282 -0.028946 -0.000000 -0.004025  0.000074  0.000000
  2H   2pz       -0.000000 -0.000000  0.000719 -0.000000 -0.000000 -0.000529
  2H   2px        0.000590 -0.001496 -0.000000  0.000194 -0.000490 -0.000000
  2H   2py       -0.002218 -0.012039 -0.000000 -0.001661  0.000016  0.000000
  2H   3pz        0.000000  0.000000 -0.001455 -0.000000  0.000000 -0.000330
  2H   3px       -0.000683  0.001600  0.000000  0.000133 -0.000327  0.000000
  2H   3py        0.001067  0.003207  0.000000  0.000356 -0.000042  0.000000
  2H   1dz2       0.000292 -0.002605 -0.000000 -0.000499 -0.000016 -0.000000
  2H   1dxz       0.000000  0.000000 -0.000136 -0.000000 -0.000000  0.000009
  2H   1dyz       0.000000  0.000000 -0.002101  0.000000  0.000000 -0.000229
  2H   1dx2y2    -0.000075 -0.004110 -0.000000 -0.000820 -0.000056 -0.000000
  2H   1dxy      -0.001555  0.002471  0.000000  0.000137 -0.000297  0.000000
  2H   2dz2       0.000368 -0.000985  0.000000 -0.000219 -0.000022 -0.000000
  2H   2dxz       0.000000  0.000000 -0.000137 -0.000000 -0.000000  0.000003
  2H   2dyz       0.000000  0.000000 -0.001593  0.000000  0.000000 -0.000101
  2H   2dx2y2    -0.000090 -0.001312 -0.000000 -0.000311 -0.000021  0.000000
  2H   2dxy      -0.000935  0.001543  0.000000  0.000020 -0.000113  0.000000
                     12        13        14        15        16        17   
                 -11.17687 -11.17676  -2.56149  -1.78293  -1.78086  -1.77005
                   1.00000   1.00000   1.00000   1.00000   1.00000   1.00000
                  --------  --------  --------  --------  --------  --------
  0Rh  1s        -0.000000  0.000000 -0.001037 -0.000083  0.000000  0.000000
  0Rh  2s        -0.000000  0.000025  0.061743 -0.002209  0.000003  0.000000
  0Rh  3s        -0.000000 -0.000021  0.096008 -0.005341  0.000008  0.000000
  0Rh  4s        -0.000000  0.000327  1.535968 -0.045300  0.000049  0.000000
  0Rh  5s        -0.000000  0.001434  0.958218 -0.023781  0.000058  0.000000
  0Rh  6s         0.000000  0.000598 -0.251855  0.019375 -0.000020 -0.000000
  0Rh  7s         0.000000 -0.000027  0.134222 -0.001153 -0.000002 -0.000000
  0Rh  1pz        0.000000  0.000000 -0.000000  0.000000  0.000000 -0.004448
  0Rh  1px       -0.000000  0.000000  0.002124  0.003168 -0.002858  0.000000
  0Rh  1py       -0.000000  0.000000  0.001912  0.002856  0.003170  0.000000
  0Rh  2pz        0.000001  0.000000 -0.000000 -0.000000 -0.000000  0.017397
  0Rh  2px       -0.000000 -0.000143  0.024493 -0.014305  0.012917  0.000000
  0Rh  2py       -0.000000 -0.000130  0.022051 -0.012898 -0.014325  0.000000
  0Rh  3pz       -0.000000  0.000000 -0.000000  0.000000  0.000000 -0.998805
  0Rh  3px       -0.000000  0.000165  0.211496  0.728658 -0.657198  0.000000
  0Rh  3py       -0.000000  0.000144  0.190412  0.656990  0.728914  0.000000
  0Rh  4pz       -0.000002  0.000000 -0.000000 -0.000000 -0.000000 -0.009931
  0Rh  4px       -0.000000  0.000643  0.377542 -0.008234  0.008527  0.000000
  0Rh  4py       -0.000000  0.000572  0.339908 -0.007397 -0.009412  0.000000
  0Rh  5pz       -0.000001  0.000000 -0.000000 -0.000000 -0.000000  0.010306
  0Rh  5px        0.000000  0.000404  0.006114 -0.005809  0.005383  0.000000
  0Rh  5py        0.000000  0.000365  0.005513 -0.005222 -0.005959  0.000000
  0Rh  6pz       -0.000001  0.000000 -0.000000 -0.000000 -0.000000 -0.008224
  0Rh  6px        0.000000  0.000231 -0.015110  0.009017 -0.008009 -0.000000
  0Rh  6py        0.000000  0.000210 -0.013601  0.008131  0.008879  0.000000
  0Rh  1dz2      -0.000000 -0.994681 -0.004873  0.000472 -0.000001 -0.000000
  0Rh  1dxz      -0.671271 -0.000000 -0.000000 -0.000000  0.000000  0.000106
  0Rh  1dyz       0.741196 -0.000000 -0.000000 -0.000000  0.000000  0.000096
  0Rh  1dx2y2    -0.000000 -0.011957  0.000110 -0.000022  0.000864  0.000000
  0Rh  1dxy      -0.000000 -0.102242  0.001037 -0.000213 -0.000091  0.000000
  0Rh  2dz2       0.000000 -0.000176 -0.111661  0.000152 -0.000010 -0.000000
  0Rh  2dxz      -0.000022  0.000000 -0.000000 -0.000000 -0.000000 -0.003314
  0Rh  2dyz       0.000024  0.000000  0.000000  0.000000  0.000000 -0.002975
  0Rh  2dx2y2     0.000000  0.000024  0.002842  0.000383  0.002349  0.000000
  0Rh  2dxy      -0.000000  0.000201  0.026907  0.003651 -0.000248  0.000000
  0Rh  3dz2       0.000000  0.001945 -0.097257  0.006436 -0.000015 -0.000000
  0Rh  3dxz       0.001395  0.000000 -0.000000 -0.000000 -0.000000  0.001082
  0Rh  3dyz      -0.001541  0.000000 -0.000000  0.000000  0.000000  0.000979
  0Rh  3dx2y2     0.000000  0.000057  0.002883 -0.000324  0.012825  0.000000
  0Rh  3dxy      -0.000000  0.000497  0.027329 -0.003074 -0.001344  0.000000
  0Rh  4dz2      -0.000000 -0.002312 -0.009126  0.000600  0.000000 -0.000000
  0Rh  4dxz      -0.001587  0.000000 -0.000000 -0.000000 -0.000000  0.000122
  0Rh  4dyz       0.001752 -0.000000 -0.000000  0.000000  0.000000  0.000103
  0Rh  4dx2y2     0.000000 -0.000015  0.000624 -0.000082  0.001338  0.000000
  0Rh  4dxy      -0.000000 -0.000111  0.005973 -0.000711 -0.000136  0.000000
  0Rh  1f0       -0.000000 -0.000000  0.000000 -0.000000 -0.000000  0.001065
  0Rh  1f+1       0.000000 -0.000037 -0.019865 -0.000135 -0.000106 -0.000000
  0Rh  1f-1       0.000000 -0.000033 -0.017885 -0.000121  0.000115 -0.000000
  0Rh  1f+2       0.000099 -0.000000 -0.000000 -0.000000 -0.000000 -0.000019
  0Rh  1f-2      -0.000011  0.000000  0.000000 -0.000000  0.000000 -0.000159
  0Rh  1f+3       0.000000  0.000057 -0.014486  0.000599 -0.000984 -0.000000
  0Rh  1f-3      -0.000000 -0.000080  0.019931 -0.000836 -0.000710 -0.000000
  0Rh  2f0        0.000000  0.000000 -0.000000 -0.000000  0.000000  0.000364
  0Rh  2f+1      -0.000000 -0.000050  0.015029 -0.001038  0.000997  0.000000
  0Rh  2f-1      -0.000000 -0.000046  0.013530 -0.000927 -0.001093  0.000000
  0Rh  2f+2      -0.000227  0.000000  0.000000  0.000000  0.000000  0.000007
  0Rh  2f-2       0.000023 -0.000000 -0.000000  0.000000 -0.000000 -0.000024
  0Rh  2f+3      -0.000000 -0.000078  0.010289 -0.000651  0.001519  0.000000
  0Rh  2f-3       0.000000  0.000109 -0.014156  0.000899  0.001100  0.000000
  0Rh  1g0       -0.000000 -0.000008  0.003064  0.000160  0.000004  0.000000
  0Rh  1g+1      -0.000024 -0.000000  0.000000 -0.000000 -0.000000  0.000262
  0Rh  1g-1       0.000026 -0.000000 -0.000000  0.000000  0.000000  0.000233
  0Rh  1g+2       0.000000 -0.000002 -0.000085 -0.000018  0.000157 -0.000000
  0Rh  1g-2       0.000000 -0.000012 -0.000775 -0.000169 -0.000013 -0.000000
  0Rh  1g+3      -0.000040 -0.000000 -0.000000  0.000000 -0.000000  0.000133
  0Rh  1g-3      -0.000028  0.000000 -0.000000  0.000000  0.000000 -0.000185
  0Rh  1g+4       0.000000  0.000038 -0.006044 -0.000161 -0.000077 -0.000000
  0Rh  1g-4      -0.000000 -0.000008  0.001282  0.000023 -0.000319  0.000000
  1H   1s         0.000000 -0.000683 -0.541765  0.034229 -0.038956 -0.000000
  1H   2s        -0.000000 -0.000812 -0.286710 -0.002311 -0.001757 -0.000000
  1H   3s        -0.000000  0.000054  0.110026 -0.005296  0.006303  0.000000
  1H   4s        -0.000000  0.000108  0.015403 -0.000695  0.000857  0.000000
  1H   1pz       -0.000002 -0.000000  0.000000  0.000000  0.000000 -0.001906
  1H   1px       -0.000000 -0.000268  0.245307 -0.017428  0.019276  0.000000
  1H   1py       -0.000000 -0.000223 -0.008895  0.001762  0.001243 -0.000000
  1H   2pz        0.000380 -0.000000  0.000000  0.000000  0.000000  0.001168
  1H   2px       -0.000000 -0.000103  0.116568 -0.002662  0.003928  0.000000
  1H   2py       -0.000000 -0.000098 -0.005177 -0.000202 -0.001284 -0.000000
  1H   3pz        0.000294 -0.000000  0.000000  0.000000  0.000000  0.000810
  1H   3px        0.000000 -0.000048 -0.024717  0.001280 -0.001506 -0.000000
  1H   3py       -0.000000  0.000041  0.000076 -0.000280 -0.000774 -0.000000
  1H   1dz2      -0.000000 -0.000065  0.033857 -0.002224  0.002537  0.000000
  1H   1dxz       0.000238  0.000000 -0.000000 -0.000000 -0.000000  0.001742
  1H   1dyz       0.000035 -0.000000 -0.000000 -0.000000 -0.000000  0.000011
  1H   1dx2y2     0.000000  0.000020 -0.061038  0.004203 -0.004286 -0.000000
  1H   1dxy       0.000000  0.000081  0.001217 -0.001092 -0.001352  0.000000
  1H   2dz2      -0.000000 -0.000032  0.016796 -0.000301  0.000519  0.000000
  1H   2dxz       0.000117  0.000000 -0.000000 -0.000000 -0.000000  0.000425
  1H   2dyz       0.000015 -0.000000 -0.000000 -0.000000 -0.000000  0.000011
  1H   2dx2y2     0.000000 -0.000001 -0.031172  0.000823 -0.000796 -0.000000
  1H   2dxy       0.000000  0.000044  0.000533 -0.000182 -0.000326  0.000000
  2H   1s         0.000000 -0.000669 -0.541694  0.034279  0.038843 -0.000000
  2H   2s         0.000000 -0.000807 -0.286680 -0.002312  0.001741 -0.000000
  2H   3s        -0.000000  0.000051  0.110009 -0.005312 -0.006285  0.000000
  2H   4s        -0.000000  0.000108  0.015401 -0.000697 -0.000858  0.000000
  2H   1pz        0.000003 -0.000000  0.000000  0.000000 -0.000000 -0.001917
  2H   1px       -0.000000 -0.000250  0.016802 -0.000038 -0.003251 -0.000000
  2H   1py       -0.000000 -0.000252  0.244852 -0.017569 -0.019001  0.000000
  2H   2pz       -0.000377 -0.000000  0.000000  0.000000 -0.000000  0.001166
  2H   2px        0.000000 -0.000107  0.007044 -0.000456  0.000865 -0.000000
  2H   2py       -0.000000 -0.000096  0.116455 -0.002647 -0.004040  0.000000
  2H   3pz       -0.000293 -0.000000  0.000000  0.000000  0.000000  0.000814
  2H   3px        0.000000  0.000036 -0.002507 -0.000146  0.000927  0.000000
  2H   3py        0.000000 -0.000052 -0.024584  0.001307  0.001412 -0.000000
  2H   1dz2      -0.000000 -0.000066  0.033851 -0.002237 -0.002533 -0.000000
  2H   1dxz      -0.000060  0.000000 -0.000000  0.000000  0.000000  0.000195
  2H   1dyz      -0.000231  0.000000 -0.000000  0.000000  0.000000  0.001740
  2H   1dx2y2    -0.000000 -0.000005  0.059946 -0.004351 -0.003906  0.000000
  2H   1dxy       0.000000  0.000084 -0.011501 -0.000208  0.002211  0.000000
  2H   2dz2      -0.000000 -0.000032  0.016794 -0.000308 -0.000520 -0.000000
  2H   2dxz      -0.000028  0.000000 -0.000000  0.000000  0.000000  0.000057
  2H   2dyz      -0.000114  0.000000 -0.000000  0.000000  0.000000  0.000426
  2H   2dx2y2    -0.000000  0.000009  0.030598 -0.000846 -0.000712  0.000000
  2H   2dxy       0.000000  0.000043 -0.005960 -0.000018  0.000483  0.000000
                     18        19        20        21        22        23   
                  -0.37513  -0.36731  -0.23705  -0.22756  -0.22488  -0.20003
                   1.00000   1.00000   1.00000   1.00000   1.00000   1.00000
                  --------  --------  --------  --------  --------  --------
  0Rh  1s        -0.000000  0.002877 -0.000296  0.000000 -0.000000 -0.001773
  0Rh  2s         0.000007  0.030314 -0.003000  0.000000 -0.000000 -0.019694
  0Rh  3s         0.000011  0.097085 -0.009720  0.000000 -0.000000 -0.061223
  0Rh  4s         0.000095  0.431816 -0.041398  0.000000 -0.000000 -0.262542
  0Rh  5s        -0.000251  0.307479 -0.027740  0.000000 -0.000000 -0.088036
  0Rh  6s         0.000020 -0.034680  0.003775 -0.000000  0.000000  0.004942
  0Rh  7s         0.000037  0.036654 -0.003653  0.000000  0.000000 -0.034308
  0Rh  1pz        0.000000  0.000000 -0.000000 -0.000161 -0.000000 -0.000000
  0Rh  1px       -0.000800  0.001957 -0.000067  0.000000  0.000000 -0.000932
  0Rh  1py        0.000890  0.001759 -0.000062 -0.000000  0.000000 -0.000838
  0Rh  2pz        0.000000 -0.000000  0.000000 -0.000533 -0.000001  0.000000
  0Rh  2px       -0.003833  0.016104 -0.001244 -0.000000  0.000000 -0.008866
  0Rh  2py        0.004263  0.014467 -0.001138  0.000000 -0.000000 -0.007970
  0Rh  3pz        0.000000 -0.000000  0.000000 -0.015522 -0.000029  0.000000
  0Rh  3px       -0.081782  0.195004 -0.006516 -0.000000  0.000000 -0.086915
  0Rh  3py        0.090952  0.175239 -0.006030  0.000000 -0.000000 -0.078137
  0Rh  4pz       -0.000000 -0.000000  0.000000  0.021119 -0.000006  0.000000
  0Rh  4px        0.049820  0.125987 -0.030660 -0.000000  0.000000 -0.089435
  0Rh  4py       -0.055582  0.112984 -0.028042  0.000000 -0.000000 -0.080248
  0Rh  5pz       -0.000000 -0.000000  0.000000  0.002431 -0.000009  0.000000
  0Rh  5px        0.005000  0.011735 -0.003189  0.000000  0.000000 -0.007853
  0Rh  5py       -0.005623  0.010519 -0.002954  0.000000 -0.000000 -0.007016
  0Rh  6pz       -0.000000 -0.000000 -0.000000  0.000319  0.000006  0.000000
  0Rh  6px       -0.000467 -0.000006 -0.000069  0.000000 -0.000000 -0.000103
  0Rh  6py        0.000504 -0.000008 -0.000068  0.000000 -0.000000 -0.000087
  0Rh  1dz2      -0.000001 -0.004275  0.000372 -0.000000  0.000000  0.001677
  0Rh  1dxz       0.000000 -0.000000  0.000000 -0.000372 -0.000294  0.000000
  0Rh  1dyz       0.000000 -0.000000  0.000000 -0.000336  0.000325  0.000000
  0Rh  1dx2y2    -0.003742  0.000108  0.000070 -0.000000  0.000000 -0.000042
  0Rh  1dxy       0.000394  0.000963  0.000643 -0.000000 -0.000000 -0.000378
  0Rh  2dz2       0.000267  0.336774 -0.127217 -0.000000  0.000000  0.898291
  0Rh  2dxz       0.000000 -0.000000  0.000000  0.728853  0.660488  0.000000
  0Rh  2dyz       0.000000  0.000000 -0.000000  0.657898 -0.731733  0.000000
  0Rh  2dx2y2     0.626330 -0.008576 -0.100752 -0.000000  0.000000 -0.010676
  0Rh  2dxy      -0.065905 -0.078365 -0.958892  0.000000  0.000000 -0.101113
  0Rh  3dz2       0.000038 -0.051150  0.004108 -0.000000  0.000000  0.055728
  0Rh  3dxz       0.000000 -0.000000  0.000000  0.015942  0.014481  0.000000
  0Rh  3dyz       0.000000  0.000000 -0.000000  0.014373 -0.016070 -0.000000
  0Rh  3dx2y2    -0.007740  0.001476 -0.002166 -0.000000  0.000000 -0.001291
  0Rh  3dxy       0.000794  0.012802 -0.021582  0.000000 -0.000000 -0.011794
  0Rh  4dz2       0.000015 -0.007901 -0.000522 -0.000000  0.000000  0.023838
  0Rh  4dxz      -0.000000 -0.000000  0.000000  0.012075  0.011097  0.000000
  0Rh  4dyz       0.000000  0.000000 -0.000000  0.010907 -0.012319 -0.000000
  0Rh  4dx2y2     0.000528  0.000318 -0.001573 -0.000000  0.000000 -0.000469
  0Rh  4dxy      -0.000065  0.002792 -0.015253  0.000000 -0.000000 -0.004284
  0Rh  1f0       -0.000000  0.000000 -0.000000 -0.007533 -0.000010 -0.000000
  0Rh  1f+1      -0.008460  0.003631  0.002111  0.000000 -0.000000  0.006913
  0Rh  1f-1       0.009422  0.003281  0.001904 -0.000000  0.000000  0.006215
  0Rh  1f+2       0.000000 -0.000000  0.000000  0.000589  0.009009  0.000000
  0Rh  1f-2      -0.000000  0.000000 -0.000000  0.005676 -0.000951 -0.000000
  0Rh  1f+3      -0.017175  0.001203 -0.007013  0.000000 -0.000000  0.001383
  0Rh  1f-3      -0.012492 -0.001630  0.009662  0.000000  0.000000 -0.001897
  0Rh  2f0        0.000000 -0.000000  0.000000  0.002129 -0.000006  0.000000
  0Rh  2f+1       0.001890  0.003162 -0.001174 -0.000000  0.000000 -0.004462
  0Rh  2f-1      -0.002111  0.002838 -0.001079  0.000000 -0.000000 -0.004005
  0Rh  2f+2      -0.000000  0.000000 -0.000000 -0.000207 -0.002444 -0.000000
  0Rh  2f-2       0.000000 -0.000000  0.000000 -0.001987  0.000253  0.000000
  0Rh  2f+3       0.003749  0.002814  0.001738 -0.000000  0.000000 -0.001777
  0Rh  2f-3       0.002717 -0.003877 -0.002385 -0.000000 -0.000000  0.002452
  0Rh  1g0       -0.000001 -0.000663  0.000047  0.000000 -0.000000 -0.001434
  0Rh  1g+1      -0.000000  0.000000 -0.000000 -0.001198 -0.000938 -0.000000
  0Rh  1g-1       0.000000 -0.000000  0.000000 -0.001083  0.001043  0.000000
  0Rh  1g+2      -0.002285  0.000013  0.000105 -0.000000 -0.000000  0.000042
  0Rh  1g-2       0.000247  0.000127  0.001106  0.000000 -0.000000  0.000362
  0Rh  1g+3      -0.000000  0.000000 -0.000000 -0.000046 -0.000354 -0.000000
  0Rh  1g-3       0.000000 -0.000000  0.000000  0.000044 -0.000273  0.000000
  0Rh  1g+4      -0.000108  0.000163 -0.000341 -0.000000  0.000000  0.000765
  0Rh  1g-4      -0.000551 -0.000034  0.000098  0.000000  0.000000 -0.000166
  1H   1s         0.417210 -0.745066  0.063370  0.000000 -0.000000  0.379462
  1H   2s        -0.044757 -0.133812  0.021246  0.000000 -0.000000  0.169034
  1H   3s         0.008945  0.035140 -0.006171 -0.000000  0.000000 -0.030420
  1H   4s         0.001839  0.005383 -0.000813  0.000000  0.000000 -0.005760
  1H   1pz       -0.000000  0.000000 -0.000000  0.029160  0.026358 -0.000000
  1H   1px       -0.015054  0.120965 -0.010941 -0.000000  0.000000 -0.058443
  1H   1py       -0.001682 -0.011720 -0.034691 -0.000000  0.000000  0.004616
  1H   2pz        0.000000  0.000000 -0.000000  0.002431  0.002545 -0.000000
  1H   2px        0.008800  0.055582 -0.005343 -0.000000  0.000000 -0.042357
  1H   2py        0.002401 -0.002725 -0.001565 -0.000000  0.000000  0.003006
  1H   3pz        0.000000 -0.000000  0.000000 -0.001617 -0.001437  0.000000
  1H   3px        0.001729 -0.005466  0.000824  0.000000 -0.000000  0.000979
  1H   3py        0.000644  0.000800  0.001949 -0.000000 -0.000000 -0.000138
  1H   1dz2      -0.001439  0.013623 -0.001371 -0.000000  0.000000 -0.002976
  1H   1dxz       0.000000 -0.000000  0.000000 -0.005713 -0.005346  0.000000
  1H   1dyz       0.000000 -0.000000  0.000000  0.002428 -0.002397  0.000000
  1H   1dx2y2     0.003658 -0.021405  0.001669  0.000000 -0.000000  0.010927
  1H   1dxy      -0.000074  0.001906  0.006810 -0.000000 -0.000000 -0.000195
  1H   2dz2      -0.000173  0.005892 -0.000479 -0.000000  0.000000 -0.002304
  1H   2dxz       0.000000 -0.000000  0.000000 -0.000956 -0.000996  0.000000
  1H   2dyz       0.000000 -0.000000  0.000000  0.000718 -0.000595  0.000000
  1H   2dx2y2     0.000073 -0.010136  0.000837  0.000000 -0.000000  0.006124
  1H   2dxy      -0.000390  0.000590  0.000974 -0.000000 -0.000000 -0.000216
  2H   1s        -0.417644 -0.743783  0.063772 -0.000000  0.000000  0.378994
  2H   2s         0.044862 -0.133436  0.021477 -0.000000  0.000000  0.168713
  2H   3s        -0.009007  0.035051 -0.006203  0.000000 -0.000000 -0.030417
  2H   4s        -0.001849  0.005360 -0.000814  0.000000 -0.000000 -0.005758
  2H   1pz        0.000000  0.000000 -0.000000  0.029279 -0.026250 -0.000000
  2H   1px        0.003237  0.000791 -0.035903  0.000000 -0.000000 -0.001415
  2H   1py        0.014836  0.121259 -0.007344  0.000000 -0.000000 -0.058472
  2H   2pz        0.000000  0.000000  0.000000  0.002490 -0.002526 -0.000000
  2H   2px       -0.003339  0.002979 -0.002310  0.000000 -0.000000 -0.001359
  2H   2py       -0.008458  0.055404 -0.005199  0.000000 -0.000000 -0.042336
  2H   3pz        0.000000  0.000000  0.000000 -0.001610  0.001425 -0.000000
  2H   3px       -0.000844  0.000217  0.002012  0.000000  0.000000 -0.000026
  2H   3py       -0.001643 -0.005533  0.000608 -0.000000  0.000000  0.001000
  2H   1dz2       0.001459  0.013616 -0.001356  0.000000 -0.000000 -0.002963
  2H   1dxz       0.000000 -0.000000  0.000000  0.001825  0.002945  0.000000
  2H   1dyz      -0.000000  0.000000  0.000000 -0.005964  0.005040  0.000000
  2H   1dx2y2     0.003610  0.021268 -0.000241  0.000000 -0.000000 -0.010714
  2H   1dxy      -0.000665 -0.002478  0.007110 -0.000000  0.000000  0.002044
  2H   2dz2       0.000192  0.005891 -0.000466  0.000000 -0.000000 -0.002292
  2H   2dxz       0.000000 -0.000000  0.000000  0.000626  0.000698  0.000000
  2H   2dyz      -0.000000  0.000000  0.000000 -0.001036  0.000921 -0.000000
  2H   2dx2y2     0.000166  0.010012 -0.000627  0.000000 -0.000000 -0.006027
  2H   2dxy       0.000391 -0.001461  0.001189  0.000000  0.000000  0.001042
                     24        25        26        27        28        29   
                  -0.11661  -0.07438  -0.02582   0.01636   0.03607   0.07158
                   0.00000   0.00000   0.00000   0.00000   0.00000   0.00000
                  --------  --------  --------  --------  --------  --------
  0Rh  1s         0.000003  0.000709 -0.000000  0.009332 -0.000017 -0.005880
  0Rh  2s         0.000021  0.013600 -0.000000  0.052606 -0.000082 -0.045283
  0Rh  3s         0.000085  0.034253 -0.000000  0.224229 -0.000379 -0.164958
  0Rh  4s         0.000299  0.139270 -0.000000  0.753663 -0.001237 -0.668549
  0Rh  5s         0.000645 -0.734591 -0.000000  2.143289 -0.003810 -2.993210
  0Rh  6s        -0.000035 -0.440586  0.000000 -0.095803  0.000903 -1.995738
  0Rh  7s        -0.000000 -0.027272  0.000000 -0.036171  0.000259 -0.365713
  0Rh  1pz        0.000000  0.000000 -0.001225 -0.000000  0.000000  0.000000
  0Rh  1px        0.000899  0.000121 -0.000000  0.001267  0.002436  0.000884
  0Rh  1py       -0.000998  0.000110  0.000000  0.001130 -0.002711  0.000791
  0Rh  2pz        0.000000 -0.000000  0.001764 -0.000000  0.000000 -0.000000
  0Rh  2px        0.002965  0.009965  0.000000  0.016642  0.033259  0.002020
  0Rh  2py       -0.003276  0.008984 -0.000000  0.014839 -0.037002  0.001753
  0Rh  3pz        0.000000 -0.000000 -0.029083 -0.000000  0.000000 -0.000000
  0Rh  3px        0.064066  0.043851  0.000000  0.132141  0.267856  0.004164
  0Rh  3py       -0.071006  0.039592 -0.000000  0.117825 -0.298002  0.003181
  0Rh  4pz        0.000000 -0.000000  0.839582 -0.000000  0.000000 -0.000000
  0Rh  4px       -0.218843  0.493763  0.000000  0.362842  0.857614 -0.666940
  0Rh  4py        0.243508  0.444839 -0.000000  0.322797 -0.953779 -0.602147
  0Rh  5pz        0.000000 -0.000000  0.284504 -0.000000  0.000000 -0.000000
  0Rh  5px       -0.049527  0.089650  0.000000  0.048832  0.175504 -0.314685
  0Rh  5py        0.055112  0.080798 -0.000000  0.043079 -0.195022 -0.283705
  0Rh  6pz        0.000000  0.000000  0.103651  0.000000 -0.000000 -0.000000
  0Rh  6px       -0.011036  0.016569  0.000000  0.004025  0.042771 -0.122769
  0Rh  6py        0.012289  0.014944  0.000000  0.003370 -0.047482 -0.110636
  0Rh  1dz2      -0.000001 -0.001550  0.000000 -0.001850  0.000005 -0.003151
[...]
 1 H  dx2y2           0.0       0.4       4.2       0.8       9.9       9.3
 1 H  dxy             0.0      36.3      26.7       4.4       0.0       0.3
 2 H  s               0.0       4.2       1.9      12.7      17.3      16.7
 2 H  pz              0.8       0.0       0.0       0.0       0.0       0.0
 2 H  px              0.0       0.7       3.8       1.4       0.1       0.1
 2 H  py              0.0       0.6       1.0      22.2       4.4       3.0
 2 H  dz2             0.0       0.4       0.4       1.8       3.7       3.1
 2 H  dyz            39.8       0.0       0.0       0.0       0.0       0.0
 2 H  dx2y2           0.0       0.4       0.9       0.4       9.2       9.5
 2 H  dxy             0.0      36.4      30.1       4.9       0.7       0.0



                      *****************************
                      * MAYER POPULATION ANALYSIS *
                      *****************************

  NA   - Mulliken gross atomic population
  ZA   - Total nuclear charge
  QA   - Mulliken gross atomic charge
  VA   - Mayer's total valence
  BVA  - Mayer's bonded valence
  FA   - Mayer's free valence

  ATOM       NA         ZA         QA         VA         BVA        FA
  0 Rh    44.8012    45.0000     0.1988     0.7243     0.3507     0.3736
  1 H      1.0994     1.0000    -0.0994     0.7408     0.7096     0.0312
  2 H      1.0995     1.0000    -0.0995     0.7409     0.7097     0.0312

  Mayer bond orders larger than 0.100000
B(  0-Rh,  1-H ) :   0.1753 B(  0-Rh,  2-H ) :   0.1754 B(  1-H ,  2-H ) :   0.5343 


-------
TIMINGS
-------

Total SCF time: 0 days 0 hours 10 min 7 sec 

Total time                  ....     607.453 sec
Sum of individual times     ....     607.408 sec  (100.0%)

SCF preparation             ....       0.089 sec  (  0.0%)
Fock matrix formation       ....     606.905 sec  ( 99.9%)
  Startup                   ....       0.055 sec  (  0.0% of F)
  Coulomb+Exchange Fock     ....     598.632 sec  ( 98.6% of F)
  XC integration            ....       8.073 sec  (  1.3% of F)
    XC Preparation          ....       0.000 sec  (  0.0% of XC)
    Basis function eval.    ....       2.645 sec  ( 32.8% of XC)
    Density eval.           ....       1.197 sec  ( 14.8% of XC)
    XC-Functional eval.     ....       0.452 sec  (  5.6% of XC)
    XC-Potential eval.      ....       3.579 sec  ( 44.3% of XC)
Diagonalization             ....       0.000 sec  (  0.0%)
Density matrix formation    ....       0.107 sec  (  0.0%)
Total Energy calculation    ....       0.032 sec  (  0.0%)
Population analysis         ....       0.050 sec  (  0.0%)
Orbital Transformation      ....       0.020 sec  (  0.0%)
Orbital Orthonormalization  ....       0.000 sec  (  0.0%)
DIIS solution               ....       0.104 sec  (  0.0%)
  MO trafo                  ....       0.000 sec  (  0.0 % of DIIS)
  Orb grad                  ....       0.000 sec  (  0.0 % of DIIS)
  Energy W gradient         ....       0.000 sec  (  0.0 % of DIIS)
  DIIS error                ....       0.003 sec  (  2.5 % of DIIS)
  DIIS work                 ....       0.079 sec  ( 76.1 % of DIIS)
  Form Q                    ....       0.000 sec  (  0.0 % of DIIS)
  Form QpQm                 ....       0.000 sec  (  0.0 % of DIIS)
  Exp/Cayley                ....       0.000 sec  (  0.0 % of DIIS)
  Orb update                ....       0.000 sec  (  0.0 % of DIIS)
  Wake-sleep                ....       0.012 sec  ( 12.0 % of DIIS)
SOSCF solution              ....       0.102 sec  (  0.0%)
  MO trafo                  ....       0.040 sec  ( 39.6 % of SOSCF)
  Orb grad                  ....       0.007 sec  (  7.2 % of SOSCF)
  Rot update                ....       0.024 sec  ( 23.1 % of SOSCF)
  Step                      ....       0.030 sec  ( 30.0 % of SOSCF)
Finished LeanSCF after 607.5 sec

Maximum memory used throughout the entire LEANSCF-calculation: 326.6 MB

------------------------------------------------------------------------------
                         ORCA PROPERTY INTEGRAL CALCULATIONS
------------------------------------------------------------------------------

GBWName                                   ... rhh2_cpks.gbw
Number of atoms                           ...      3
Number of basis functions                 ...    114
Max core memory                           ...   1024 MB

Dipole integrals                          ... YES
Quadrupole integrals                      ...  NO
Linear momentum integrals                 ...  NO
Angular momentum integrals                ... YES
Higher moments length integrals           ...  NO
Higher moments velocity integrals         ...  NO
Kinetic energy integrals                  ... YES
GIAO right hand sides                     ...  NO
GIAO dipole derivative integrals          ...  NO
SOC integrals                             ... YES
EPR diamagnetic integrals (GIAO)          ...  NO
EPR gauge integrals                       ... YES
Field gradient integrals                  ...  NO (   0 nuclei)
Spin-dipole/Fermi contact integrals       ...  NO (   0 nuclei)
Contact density integrals                 ...  NO (   0 nuclei)
Nucleus-orbit integrals                   ...  NO (   0 nuclei)
Geometric perturbations                   ...  NO (   3 nuclei)

Choice of electric origin   ... Center of mass
Position of electric origin ... (  0.0303,  0.0273,  0.0000) 
Choice of magnetic origin   ... Center of nuclear charge
Position of magnetic origin ... (  0.0671,  0.0604,  0.0000) 

Calculating integrals                     ... Electric Dipole (Length)     done (  0.0 sec)
Calculating integrals                     ... Kinetic Energy               done (  0.0 sec)
Calculating integrals                     ... Angular Momentum  (MagOri)   done (  0.0 sec)
Calculating integrals                     ... EPR-gauge integrals          done (  0.0 sec)
  g-Tensor DSO: Zeff (2-electron approx.) ... YES 
Calculating integrals                     ... Spin-Orbit Coupling
  Spin-orbit operator                     ... Spin-Orbit Mean-Field (SOMF)
      1-El-Flag                           ...  1 ON
      Coulomb-Flag                        ...  2 ON (Via COSJ)
      Exchange-Flag                       ...  3 ON (AMFI type)
      DFT-Correlation Flag                ...  0 OFF
      Max-Center                          ...  4   
      Relativistic Picture Change         ... OFF     
  Electron density on the grid            ... done (%5.1 lf sec) NEL=     0.178407000
  SOC Coulomb terms                       ... done (%5.1 lf sec)
  One-electron part                       ... done (  0.0 sec)
  Two-electron DoJ,X=0,1 MaxCenter=1      ... done (184.2 sec)
  SOC integrals done (206.1 sec)

Property integrals calculated in 206.2 sec

Maximum memory used throughout the entire PROPINT-calculation: 1418.2 MB

-------------------------   --------------------
FINAL SINGLE POINT ENERGY     -4598.043228518692
-------------------------   --------------------

------------------------------------------------------------------------------
                            ORCA SCF RESPONSE CALCULATION
------------------------------------------------------------------------------

GBWName                                 ... rhh2_cpks.gbw
Number of atoms                         ...      3
Number of basis functions               ...    114
Max core memory                         ...   1024 MB

Electric field perturbation             ...  NO
Quadrupolar field perturbation          ...  NO
Magnetic field perturbation (no GIAO)   ... YES
Magnetic field perturbation (with GIAO) ...  NO
Linear momentum (velocity) perturbation ...  NO
Spin-orbit coupling perturbation        ...  NO
Choice of electric origin               ... Center of mass
Position of electric origin             ...     0.030278     0.027263     0.000000
Choice of magnetic origin               ... Center of nuclear charge
Position of magnetic origin             ...     0.067059     0.060380     0.000000
Nuclear geometric perturbations         ...  NO (   9 perturbations)
Nucleus-orbit perturbations             ...  NO (   0 perturbations)
Spin-dipole/Fermi contact perturbations ...  NO (   0 perturbations)

Total number of real perturbations      ...      0
Total number of imaginary perturbations ...      3
Total number of triplet perturbations   ...      0
Total number of SOC perturbations       ...      0


                              ***************************
                              * IMAGINARY PERTURBATIONS *
                              ***************************



-------------------
SHARK CP-SCF DRIVER
-------------------

Dimension of the orbital basis          ...    114
Dimension of the CPSCF-problem          ...   4253
Number of operators                     ...      2
Max. number of iterations               ...    128
Convergence Tolerance                   ... 1.0e-03
Number of perturbations                 ...      3
Perturbation type                       ... IMAGINARY

----------------------------
POPLE LINEAR EQUATION SOLVER
----------------------------

  ITERATION   0:   ||err||_max =   3.6966e+00 (  40.1 sec   0/  3 done)
  ITERATION   1:   ||err||_max =   4.1660e-01 (  40.1 sec   0/  3 done)
  ITERATION   2:   ||err||_max =   6.7837e-02 (  40.2 sec   0/  3 done)
  ITERATION   3:   ||err||_max =   3.6567e-02 (  40.0 sec   1/  3 done)
  ITERATION   4:   ||err||_max =   5.6389e-03 (  40.0 sec   1/  3 done)
  ITERATION   5:   ||err||_max =   7.1881e-04 (  39.9 sec   3/  3 done)

CP-SCF equations solved in 240.3 sec
Response densities calculated in   0.0 sec

Maximum memory used throughout the entire SCFRESP-calculation: 328.6 MB

------------------------------------------------------------------------------
                              ORCA PROPERTY CALCULATIONS
------------------------------------------------------------------------------

GBWName                                 ... rhh2_cpks.gbw
Number of atoms                         ...      3
Number of basis functions               ...    114
Max core memory                         ...   1024 MB

Electric properties:
Dipole moment                           ... YES
Quadrupole moment                       ...  NO
Static polarizability (Dipole/Dipole)   ...  NO
Static polarizability (Dipole/Quad.)    ...  NO
Static polarizability (Quad./Quad.)     ...  NO
Static polarizability (Velocity)        ...  NO

Atomic electric properties:
Dipole moment                           ...  NO
Quadrupole moment                       ...  NO
Static polarizability                   ...  NO

Choice of electric origin               ... Center of mass
Position of electric origin             ...     0.030278     0.027263     0.000000

General magnetic properties:
Magnetizability                         ...  NO

EPR properties:
g-Tensor (aka g-matrix)                 ... YES
Zero-Field splitting spin-orbit         ...  NO
Zero-field splitting spin-spin          ...  NO
Hyperfine couplings                     ...  NO (   0 nuclei)
Quadrupole couplings                    ...  NO (   0 nuclei)
Contact density                         ...  NO (   0 nuclei)

NMR properties:
Chemical shifts                         ...  NO (   0 nuclei)
Spin-rotation constants                 ...  NO (   0 nuclei)
Spin-spin couplings                     ...  NO (   0 nuclei,    0 pairs)

Choice of magnetic origin               ... Center of nuclear charge
Position of magnetic origin             ...     0.067059     0.060380     0.000000

Properties with geometric perturbations:
SCF Hessian                             ...  NO
IR spectrum                             ...  NO
VCD spectrum                            ...  NO
X-ray spectroscopy properties:
SCF XES/XAS/RIXS spectra                ...  NO


-------------
DIPOLE MOMENT
-------------

Method             : SCF
Type of density    : Electron Density
Multiplicity       :   2
Irrep              :   0
Energy             : -4598.0432285186916488 Eh
Relativity type    : 
Basis              : AO
                                X                 Y                 Z
Electronic contribution:     -2.489314874      -2.241390237       0.000000001
Nuclear contribution   :      1.728681321       1.556511653       0.000000000
                        -----------------------------------------
Total Dipole Moment    :     -0.760633553      -0.684878584       0.000000001
                        -----------------------------------------
Magnitude (a.u.)       :      1.023534111
Magnitude (Debye)      :      2.601616957



--------------------
Rotational spectrum 
--------------------
 
Rotational constants in cm-1:             8.190882             6.770661             3.706682 
Rotational constants in MHz :        245556.475481        202979.325054        111123.543753 

Dipole components along the rotational axes: 
x,y,z [a.u.] :     1.023534    -0.000001     0.000000 
x,y,z [Debye]:     2.601617    -0.000002     0.000000 

 

Dipole moment calculation done in   0.0 sec 

-------------------
ELECTRONIC G-MATRIX
-------------------

Method             : SCF
Type of density    : Spin Density
Type of derivative : Magnetic Field (no GIAOs) (Direction=X)
Multiplicity       :   2
Irrep              :   0
Relativity type    : 
Basis              : AO
The g-matrix: 
              2.5746422   -0.0040349    0.0000000
             -0.0040348    2.5754877    0.0000000
              0.0000000    0.0000000    2.0020733
DSO contribution to g-matrix:
              0.0008533   -0.0000171    0.0000000
             -0.0000171    0.0008569    0.0000000
              0.0000000    0.0000000    0.0005438
PSO contribution to g-matrix:
              0.5720125   -0.0040178    0.0000000
             -0.0040177    0.5728545    0.0000000
              0.0000000    0.0000000   -0.0002469

Breakdown of the contributions
 gel          2.0023193    2.0023193    2.0023193
 gRMC        -0.0005430   -0.0005430   -0.0005430
 gDSO(1el)    0.0004390    0.0006766    0.0007044
 gDSO(2el)    0.0001048    0.0001613    0.0001679
 gDSO(tot)    0.0005438    0.0008379    0.0008723
 gPSO(1el)    0.0012212    0.7911145    0.8022252
 gPSO(2el)   -0.0014681   -0.2227207   -0.2257520
 gPSO(tot)   -0.0002469    0.5683938    0.5764732
             ----------   ----------   ----------
 g(tot)       2.0020733    2.5710081    2.5791218 iso=  2.3840677
 Delta-g     -0.0002460    0.5686888    0.5768026 iso=  0.3817484

 Orientation: 
  X          -0.0000000    0.7430379   -0.6692494
  Y          -0.0000000    0.6692494    0.7430379
  Z           1.0000000    0.0000000   -0.0000000

Notes:  (1) The g-matrix conforms to the "BgS" spin Hamiltonian convention. 
        (2) The principal values are square roots of the eigenvalues of g*gT.
        (3) Orientations are eigenvectors of g*gT written as column vectors.
        (4) Individual contributions are projections of the full matrices onto the eigenvectors of g*gT.
        (5) Tensor is right-handed.

-------------------------------
G-TENSOR ATOM AND BOND ANALYSIS
-------------------------------

 NOTE: We project onto the eigenvectors of the total g-matrix
       that means that contributions do not necessarily add up to the final total g-values
       However, the values should be close and indicate which atoms dominantly contribute

 NOTE: We ONLY analyze the PSO term here!

 Rh-  0 :   -0.0002960 *   0.5685246 *   0.5766366 *  iso=  0.3816217 *
 H -  1 :   -0.0000017    -0.0000018    -0.0000023    iso= -0.0000019  
 H -  2 :   -0.0000017    -0.0000018    -0.0000023    iso= -0.0000019  
           ------------- ------------- ------------- -----------------
 Total-1c   -0.0002994     0.5685211     0.5766320         0.3816179
 Total-2c    0.0000525    -0.0001273    -0.0001588        -0.0000779
 Total      -0.0002469     0.5683938     0.5764732         0.3815400

EPR g-tensor done in   0.1 sec 

Maximum memory used throughout the entire PROP-calculation: 10.6 MB

--------------------------------
SUGGESTED CITATIONS FOR THIS RUN
--------------------------------

Below you find a list of papers that are relevant to this ORCA run
We neither can nor want to force you to cite these papers, but we appreciate if you do
You receive ORCA, which is the product of decades of hard work by many enthusiastic individuals, for free
The only thing we kindly ask in return is that you cite our papers,
We deeply appreciate it, if you show your appreciation for ORCA by not just citing the generic ORCA reference.

Please note that relegating all ORCA citations to the supporting information does *not* help us.
SI sections are not indexed - citations you put there will not count into any citation statistics
But we need these citations in order to attract the funding resources that allow us to do what we are doing

Therefore, if you are a happy ORCA user, please consider citing a few of the papers listed below in the main body of your paper

In addition to the list printed below, the program has created the file rhh2_cpks.bibtex that contains the list in bibtex format
You can import this file easily into all common literature databanks and citation aid programs


List of essential papers. We consider these as the minimum necessary citations

  1. Neese,F.
     Software update: the ORCA program system, version 5.0
     WIRES Comput. Molec. Sci., 2022 12(1)e1606
     doi.org/10.1002/wcms.1606

List of papers to cite with high priority. The work reported in these papers was absolutely
necessary for this run to complete.
Our perspective: the developers of density functionals and basis sets usually get cited in chemistry papers
Good! But without the algorithms to do something with them, the functionals or basis sets would not do anything.
Hence, in our opinion, the algorithm design and method developments papers are equally worthy of getting cited

  1. Neese,F.
     Prediction of electron paramagnetic resonance g values using coupled perturbed Hartree-Fock and Kohn-Sham theory
     J. Chem. Phys., 2001 115(24)11080-11096
     doi.org/10.1063/1.1419058
  2. Neese,F.
     Efficient and accurate approximations to the molecular spin-orbit coupling operator and their use in molecular g-tensor calculations
     J. Chem. Phys., 2005 122(3)Art. No. 034107
     doi.org/10.1063/1.1829047
  3. Neese,F.
     The SHARK Integral Generation and Digestion System
     J. Comp. Chem., 2022  1-16
     doi.org/10.1002/jcc.26942

List of suggested additional citations. These are papers that are important in the 'surrounding' of 
of this run, or papers that preceded the highly important papers. If you like your results we are grateful for a citation.

  1. Neese,F.
     The ORCA program system
     WIRES Comput. Molec. Sci., 2012 2(1)73-78
     doi.org/10.1002/wcms.81
  2. Neese,F.
     Software update: the ORCA program system, version 4.0
     WIRES Comput. Molec. Sci., 2018 8(1)1-6
     doi.org/10.1002/wcms.1327
  3. Neese,F.; Wennmohs,F.; Becker,U.; Riplinger,C.
     The ORCA quantum chemistry program package
     J. Chem. Phys., 2020 152 Art. No. L224108
     doi.org/10.1063/5.0004608

List of optional additional citations

  1. Neese,F.
     Approximate second-order SCF convergence for spin unrestricted wavefunctions
     Chem. Phys. Lett., 2000 325(1-3)93-98
     doi.org/10.1016/s0009-2614(00)00662-x

Timings for individual modules:

Sum of individual times          ...     1059.247 sec (=  17.654 min)
Startup calculation              ...        3.787 sec (=   0.063 min)   0.4 %
SCF iterations                   ...      608.382 sec (=  10.140 min)  57.4 %
Property integrals               ...      206.246 sec (=   3.437 min)  19.5 %
SCF Response                     ...      240.687 sec (=   4.011 min)  22.7 %
Property calculations            ...        0.145 sec (=   0.002 min)   0.0 %
                             ****ORCA TERMINATED NORMALLY****
TOTAL RUN TIME: 0 days 0 hours 17 minutes 39 seconds 406 msec
