                  Welcome to Q-Chem
     A Quantum Leap Into The Future Of Chemistry


 Q-Chem 5.4 (devel), Q-Chem, Inc., Pleasanton, CA (2021)

 E. Epifanovsky,  A. T. B. Gilbert,  Xintian Feng,  Joonho Lee,  Yuezhi Mao,  
 N. Mardirossian,  P. Pokhilko,  A. White,  M. Wormit,  M. P. Coons,  
 A. L. Dempwolff,  Zhengting Gan,  D. Hait,  P. R. Horn,  L. D. Jacobson,  
 I. Kaliman,  J. Kussmann,  A. W. Lange,  Ka Un Lao,  D. S. Levine,  Jie Liu,  
 S. C. McKenzie,  A. F. Morrison,  K. Nanda,  F. Plasser,  D. R. Rehn,  
 M. L. Vidal,  Zhi-Qiang You,  Ying Zhu,  B. Alam,  B. Albrecht,  
 A. Aldossary,  E. Alguire,  J. H. Andersen,  D. Barton,  K. Begam,  A. Behn,  
 Y. A. Bernard,  E. J. Berquist,  H. Burton,  A. Carreras,  K. Carter-Fenk,  
 Romit Chakraborty,  A. D. Chien,  K. D. Closser,  V. Cofer-Shabica,  
 S. Dasgupta,  Jia Deng,  M. de Wergifosse,  M. Diedenhofen,  Hainam Do,  
 S. Ehlert,  Po-Tung Fang,  S. Fatehi,  Qingguo Feng,  T. Friedhoff,  
 J. Gayvert,  Qinghui Ge,  G. Gidofalvi,  M. Goldey,  J. Gomes,  
 C. Gonzalez-Espinoza,  S. Gulania,  A. Gunina,  M. W. D. Hanson-Heine,  
 P. H. P. Harbach,  A. W. Hauser,  M. F. Herbst,  M. Hernandez Vera,  
 M. Hodecker,  Z. C. Holden,  S. Houck,  Xunkun Huang,  Kerwin Hui,  
 B. C. Huynh,  M. Ivanov,  Hyunjun Ji,  Hanjie Jiang,  B. Kaduk,  S. Kaehler,  
 K. Khistyaev,  Jaehoon Kim,  P. Klunzinger,  Z. Koczor-Benda,  
 Joong Hoon Koh,  D. Kosenkov,  L. Koulias,  T. Kowalczyk,  C. M. Krauter,  
 K. Kue,  A. Kunitsa,  T. Kus,  A. Landau,  K. V. Lawler,  D. Lefrancois,  
 S. Lehtola,  Rain Li,  Yi-Pei Li,  Jiashu Liang,  M. Liebenthal,  
 Hung-Hsuan Lin,  You-Sheng Lin,  Fenglai Liu,  Kuan-Yu Liu,  
 M. Loipersberger,  A. Luenser,  A. Manjanath,  P. Manohar,  E. Mansoor,  
 S. F. Manzer,  Shan-Ping Mao,  A. V. Marenich,  T. Markovich,  S. Mason,  
 S. A. Maurer,  P. F. McLaughlin,  M. F. S. J. Menger,  J.-M. Mewes,  
 S. A. Mewes,  P. Morgante,  J. W. Mullinax,  K. J. Oosterbaan,  G. Paran,  
 Alexander C. Paul,  Suranjan K. Paul,  F. Pavosevic,  Zheng Pei,  S. Prager,  
 E. I. Proynov,  E. Ramos,  B. Rana,  A. E. Rask,  A. Rettig,  R. M. Richard,  
 F. Rob,  E. Rossomme,  T. Scheele,  M. Scheurer,  M. Schneider,  
 N. Sergueev,  S. M. Sharada,  W. Skomorowski,  D. W. Small,  C. J. Stein,  
 Yu-Chuan Su,  E. J. Sundstrom,  Zhen Tao,  J. Thirman,  T. Tsuchimochi,  
 N. M. Tubman,  S. P. Veccham,  O. Vydrov,  J. Wenzel,  J. Witte,  A. Yamada,  
 Kun Yao,  S. Yeganeh,  S. R. Yost,  A. Zech,  Igor Ying Zhang,  Xing Zhang,  
 Yu Zhang,  D. Zuev,  A. Aspuru-Guzik,  A. T. Bell,  N. A. Besley,  
 K. B. Bravaya,  B. R. Brooks,  D. Casanova,  Jeng-Da Chai,  S. Coriani,  
 C. J. Cramer,  A. E. DePrince, III,  R. A. DiStasio Jr.,  A. Dreuw,  
 B. D. Dunietz,  T. R. Furlani,  W. A. Goddard III,  S. Grimme,  
 S. Hammes-Schiffer,  T. Head-Gordon,  W. J. Hehre,  Chao-Ping Hsu,  
 T.-C. Jagau,  Yousung Jung,  A. Klamt,  Jing Kong,  D. S. Lambrecht,  
 WanZhen Liang,  N. J. Mayhall,  C. W. McCurdy,  J. B. Neaton,  T. Neudecker,  
 C. Ochsenfeld,  J. A. Parkhill,  R. Peverati,  V. A. Rassolov,  Yihan Shao,  
 L. V. Slipchenko,  R. P. Steele,  J. E. Subotnik,  A. J. W. Thom,  
 A. Tkatchenko,  D. G. Truhlar,  T. Van Voorhis,  T. A. Wesolowski,  
 K. B. Whaley,  H. L. Woodcock III,  P. M. Zimmerman,  S. Faraji,  
 P. M. W. Gill,  M. Head-Gordon,  J. M. Herbert,  A. I. Krylov

 Additional authors since Version 5.4.0: 
 Chandrima Chakravarty,  L. Cunha,  R. Kang,  Yongbin Kim,  S. Kotaru,  
 Shaozhi Li,  Xiangyuan Li,  F. Matz,  A. Molle,  V. Parravicini,  
 Haisheng Ren,  Hengyuan Shen,  Yingli Su,  Hung-Yi Tsai,  C. Utku,  
 Fang Wang,  Jeff Yang,  F. Zeller

 Contributors to earlier versions of Q-Chem not listed above: 
 R. D. Adamson,  B. Austin,  R. Baer,  J. Baker,  G. J. O. Beran,  
 K. Brandhorst,  S. T. Brown,  E. F. C. Byrd,  Arup K. Chakraborty,  
 G. K. L. Chan,  Chun-Min Chang,  Yunqing Chen,  C.-L. Cheng,  
 Siu Hung Chien,  D. M. Chipman,  D. L. Crittenden,  H. Dachsel,  
 R. J. Doerksen,  A. D. Dutoi,  R. G. Edgar,  J. Fosso-Tande,  
 L. Fusti-Molnar,  D. Ghosh,  A. Ghysels,  A. Golubeva-Zadorozhnaya,  
 J. Gonthier,  M. S. Gordon,  S. R. Gwaltney,  G. Hawkins,  J. E. Herr,  
 A. Heyden,  S. Hirata,  E. G. Hohenstein,  G. Kedziora,  F. J. Keil,  
 C. Kelley,  Jihan Kim,  R. A. King,  R. Z. Khaliullin,  P. P. Korambath,  
 W. Kurlancheek,  A. Laurent,  A. M. Lee,  M. S. Lee,  S. V. Levchenko,  
 Ching Yeh Lin,  D. Liotard,  E. Livshits,  R. C. Lochan,  I. Lotan,  
 L. A. Martinez-Martinez,  P. E. Maslen,  N. Nair,  D. P. O'Neill,  
 D. Neuhauser,  E. Neuscamman,  C. M. Oana,  R. Olivares-Amaya,  R. Olson,  
 T. M. Perrine,  B. Peters,  P. A. Pieniazek,  A. Prociuk,  Y. M. Rhee,  
 J. Ritchie,  M. A. Rohrdanz,  E. Rosta,  N. J. Russ,  H. F. Schaefer III,  
 M. W. Schmidt,  N. E. Schultz,  S. Sharma,  N. Shenvi,  C. D. Sherrill,  
 A. C. Simmonett,  A. Sodt,  T. Stein,  D. Stuck,  K. S. Thanthiriwatte,  
 V. Vanovschi,  L. Vogt,  Tao Wang,  A. Warshel,  M. A. Watson,  
 C. F. Williams,  Q. Wu,  X. Xu,  Jun Yang,  W. Zhang,  Yan Zhao

   Please cite Q-Chem as follows:
  "Software for the frontiers of quantum chemistry:
   An overview of developments in the Q-Chem 5 package"
   J. Chem. Phys. 155, 084801 (2021)
   https://doi.org/10.1063/5.0055522 (open access)

 Q-Chem 5.4.2 for Intel X86 EM64T Linux

 Parts of Q-Chem use Armadillo 9.900.5 (Nocturnal Misbehaviour).
 http://arma.sourceforge.net/

 Q-Chem begins on Fri Dec  2 14:17:41 2022  

 Host: atlas-181
0

     Scratch files written to ./qchem328492//
 Processing $rem in /scratch/abel/SOFTWARE/qchem/config/preferences:
 Processing $rem in /dipc/acebg/.qchemrc:
The previous job contains 0 fragments, simply inherited here

 Checking the input file for inconsistencies... 	...done.

--------------------------------------------------------------
User input:
--------------------------------------------------------------
$comment
 RAS-SF CALCULATION
$end

$molecule
 READ cucl4_2-_d10.molecule
$end

$rem
!**CALCULATION TYPE***     
JOBTYPE            sp    
EXCHANGE           HF
CORRELATION        RASCI    !RASCI=Casanova; RASCI2=Zimmerman
BASIS              def2-TZVP
!BASIS2             STO-3G

!***SCF REFERENCE***
SKIP_SCFMAN        FALSE
UNRESTRICTED       FALSE
!SCF_GUESS          core
!SCF_GUESS_MIX      FALSE
!SCF_GUESS_ALWAYS   FALSE
MAX_SCF_CYCLES     500
SCF_CONVERGENCE    8
!SCF_ALGORITHM      DIIS !DIIS,DM,DIIS_DM,GDM,DIIS_GDM,GD

SYMMETRY           TRUE !use of symmetry for calculating integrals
SYM_IGNORE         FALSE !turn off using symmetry
SYM_TOL            5 !tolerance for determining point group

!THRESH             14
SCF_FINAL_PRINT     1 !0,1,2,3

!****RAS-SF****
RAS_ROOTS          10       !number of RAS-CI roots to be computed
SET_ITER           100     !number of iterations in RASCI
RAS_ELEC           11       !number of electrons in RAS2
!RAS_ELEC_ALPHA            !spin-α electrons in RAS2 
!RAS_ELEC_BETA             !spin-β electrons in RAS2

RAS_ACT            6       !number of orbitals in RAS2 
RAS_ACT_ORB    [34,35,36,37,38,50] !user-selected RAS2 orbitals
RAS_OCC            44       !number of orbitals in RAS1
N_FROZEN_CORE      FC     !Number of frozen core orbitals
N_FROZEN_VIRTUAL   0      !Number of frozen virtual orbitals
RAS_NATORB         TRUE    !computation of the natural orbital occupancies
!RAS_NATORB_STATE  0      !Saves NO of i RAS computed state in .fchk ﬁle

RAS_DO_HOLE        TRUE   !presence of hole excitations in RAS-CI wave function
RAS_DO_PART        TRUE   !presence of particle excitations
RAS_AMPL_PRINT     10     !threshold (×10 2 ) for the CI amplitudes

RAS_GUESS_CS       0      !number of closed shell guess conﬁgurations
RAS_SPIN_MULT      0      !spin multiplicity: 0=any, 2n+1=defined 
RAS_SRDFT          FALSE  !short-range density functional RAS-CI
RAS_NFRAG          0     !fragments of excitation analysis in RASCI

RAS_PRINT          2      !level of information
RAS_NATORB         TRUE   !computation of the natural orbital occupancies
!RAS_NATORB_STATE  0      !Saves NO of i RAS computed state in .fchk ﬁle
RAS_FOD            TRUE

!****RAS-SOC****
CALC_SOC           TRUE   !calculate SOC for EOM-CC, RAS-CI, ADC, TDDFT/TDA and TDDFT
!RAS_SOC_2E        TRUE   !two-electron mean-ﬁeld contribution, default=true
RAS_SOC_SYM_DENS   TRUE   !averaging of α and β densities

!****MEMORY****
MEM_TOTAL          10000 !Default 2000 MB
MEM_STATIC         2000  !Default 64 MB

!**Molecular Properties and Analysis **                                                                                          
GUI                2
STATE_ANALYSIS     TRUE
MOLDEN_FORMAT      TRUE
PRINT_ORBITALS     20
$end                                           

--------------------------------------------------------------
 ----------------------------------------------------------------
             Standard Nuclear Orientation (Angstroms)
    I     Atom           X                Y                Z
 ----------------------------------------------------------------
    1      Cu     -0.0000000000     0.0000000000    -0.0000000000
    2      Cl      2.3112385002    -0.0000000000    -0.0000000000
    3      Cl      0.0000000000     2.3112385002    -0.0000000000
    4      Cl     -0.0000000000    -2.3112385002     0.0000000000
    5      Cl     -2.3112385002     0.0000000000     0.0000000000
 ----------------------------------------------------------------
 Molecular Point Group                 D2h   NOp =  8
 Largest Abelian Subgroup              D2h   NOp =  8
 Nuclear Repulsion Energy =         704.82872953 hartrees
 There are       50 alpha and       50 beta electrons
 Requested basis set is def2-TZVP
 There are 67 shells and 193 basis functions

 Total QAlloc Memory Limit  10000 MB
 Mega-Array Size      1956 MB
 MEM_STATIC part      2000 MB


                       Distance Matrix (Angstroms)
             Cu(  1)   Cl(  2)   Cl(  3)   Cl(  4)
   Cl(  2)  2.311239
   Cl(  3)  2.311239  3.268585
   Cl(  4)  2.311239  3.268585  4.622477
   Cl(  5)  2.311239  4.622477  3.268585  3.268585
 
 A cutoff of  1.0D-11 yielded   1818 shell pairs
 There are     16326 function pairs (     21523 Cartesian)
 Smallest overlap matrix eigenvalue = 9.49E-03

 Scale SEOQF with 1.000000e-01/1.000000e-01/1.000000e-01

 Standard Electronic Orientation quadrupole field applied
 Nucleus-field energy     =     0.0000000195 hartrees
 Guess from superposition of atomic densities
 Warning:  Energy on first SCF cycle will be non-variational
 SAD guess density has 97.000000 electrons

 -----------------------------------------------------------------------
  General SCF calculation program by
  Eric Jon Sundstrom, Paul Horn, Yuezhi Mao, Dmitri Zuev, Alec White,
  David Stuck, Shaama M.S., Shane Yost, Joonho Lee, David Small,
  Daniel Levine, Susi Lehtola, Hugh Burton, Evgeny Epifanovsky,
  Bang C. Huynh
 -----------------------------------------------------------------------
 Hartree-Fock
 A restricted SCF calculation will be
 performed using DIIS
 SCF converges when DIIS error is below 1.0e-08
 ---------------------------------------
  Cycle       Energy         DIIS error
 ---------------------------------------
    1   -3476.6934827134      2.23e-02  
    2   -3476.7267803034      4.35e-03  
    3   -3476.8410645372      1.91e-03  
    4   -3476.8520042025      2.79e-04  
    5   -3476.8523511947      2.54e-04  
    6   -3476.8524852109      7.30e-05  
    7   -3476.8525274137      2.19e-05  
    8   -3476.8525342382      1.08e-05  
    9   -3476.8525356556      3.27e-06  
   10   -3476.8525357940      3.26e-07  
   11   -3476.8525357961      7.02e-08  
   12   -3476.8525357957      1.51e-08  
   13   -3476.8525357974      1.55e-09  Convergence criterion met
 ---------------------------------------
 DFT Correlation    Energy =   0.00000000000000
 DFT Exchange       Energy =   0.00000000000000
 HF Exchange        Energy = -176.91470971037651
 Kinetic            Energy =   0.00000000000000
 Nuclear Attraction Energy =   0.00000000000000
 One-Electron       Energy = -6295.50476503938808
 Total Coulomb      Energy = 2290.73820940254609
 Final Alpha MO Eigenvalues
            1           2           3           4           5           6
    1-328.2526880-104.2563787-104.2563747-104.2563726-104.2563726 -40.2821337
            7           8           9          10          11          12
    1 -35.0854217 -35.0791333 -35.0791333  -9.9853569  -9.9853513  -9.9853513
           13          14          15          16          17          18
    1  -9.9853475  -7.4519554  -7.4519543  -7.4519514  -7.4519514  -7.4516502
           19          20          21          22          23          24
    1  -7.4516490  -7.4516490  -7.4516461  -7.4516219  -7.4516205  -7.4516205
           25          26          27          28          29          30
    1  -7.4516202  -4.4792870  -2.7943978  -2.7932823  -2.7932823  -0.5208555
           31          32          33          34          35          36
    1  -0.5061055  -0.5061055  -0.4970716  -0.0205584  -0.0027431   0.0050176
           37          38          39          40          41          42
    1   0.0210534   0.0210534   0.0466990   0.0466990   0.0621517   0.0690382
           43          44          45          46          47          48
    1   0.0911038   0.0926183   0.0986302   0.0986302   0.1016668   0.1016668
           49          50          51          52          53          54
    1   0.1235028   0.1715809   0.5481729   0.7294426   0.7685366   0.7917636
           55          56          57          58          59          60
    1   0.7963456   0.7970110   0.7970110   0.8669463   0.8669463   0.8873983
           61          62          63          64          65          66
    1   0.9783104   0.9811655   0.9811655   1.0047210   1.0155879   1.0182896
           67          68          69          70          71          72
    1   1.0182896   1.0326180   1.0326180   1.0397569   1.0413603   1.0589295
           73          74          75          76          77          78
    1   1.1502152   1.1728335   1.1728335   1.1869368   1.1869368   1.2013374
           79          80          81          82          83          84
    1   1.2018508   1.2018508   1.2047875   1.2122699   1.2301253   1.2838251
           85          86          87          88          89          90
    1   1.3277483   1.3277483   1.3404934   1.3639313   1.3907937   1.4038245
           91          92          93          94          95          96
    1   1.4038245   1.4079482   1.6542816   1.6993003   1.6993003   1.7632838
           97          98          99         100         101         102
    1   1.7632838   1.7762061   1.8103443   1.9105157   2.2083616   2.6019551
          103         104         105         106         107         108
    1   2.6019551   2.6056086   2.6322839   2.6647519   2.6647519   2.6690895
          109         110         111         112         113         114
    1   2.6754364   2.6841251   2.7241607   2.7326885   2.7326885   2.7752306
          115         116         117         118         119         120
    1   2.7764450   2.7764450   2.7926906   2.7945816   2.8014101   2.8014101
          121         122         123         124         125         126
    1   2.8196102   2.8832699   2.8832699   2.9445441   2.9525695   2.9548263
          127         128         129         130         131         132
    1   2.9548263   2.9587492   2.9600006   2.9600006   2.9603876   2.9607705
          133         134         135         136         137         138
    1   2.9619675   2.9628112   2.9658159   2.9658159   2.9721825   2.9721825
          139         140         141         142         143         144
    1   2.9766428   2.9809479   2.9831379   2.9833770   3.0162647   3.0162647
          145         146         147         148         149         150
    1   3.0578387   3.0998549   3.0998549   3.1229140   3.1298064   3.1322353
          151         152         153         154         155         156
    1   3.1440176   3.1440176   3.1476350   3.1476350   3.1489321   3.1749870
          157         158         159         160         161         162
    1   3.1871186   3.2628844   3.2628844   3.2706486   3.4383735   3.5352329
          163         164         165         166         167         168
    1   3.5352329   3.8468307   4.5942863   4.8505776   4.8505776   5.0099397
          169         170         171         172         173         174
    1   5.2302019   5.5198004   6.8747169   6.8771837   6.8787843   6.8787843
          175         176         177         178         179         180
    1   6.8792960   6.9224463   6.9224463  12.0084787  12.0253835  12.0253835
          181         182         183         184         185         186
    1  12.0484890  12.0684403  12.0684403  12.0708402  12.0860505  12.1165240
          187         188         189         190         191         192
    1  12.1165240  12.2919054  12.2922254  25.7615927  25.7615927  26.1169801
          193
    1  26.6477221
 SCF time:   CPU 29.36s  wall 30.00s 
 SCF   energy in the final basis set =    -3476.8525357974
 Total energy in the final basis set =    -3476.8525357974
  
     ##========================================##
     ||                                        ||
     ||              R A S M A N 2             ||
     ||________________________________________||
     ||                                        ||
     ||  Author:                               ||
     ||                                        ||
     ||        David Casanova (2010)           ||
     ||                                        ||
     ##========================================##
  
  ***************************************************
  *  RAS-CI Dimensions:                             *
  *                                                 *
  *  Active Elec.:  11 ( 6, 5)   Active Orb.:   6   *
  *  Doubly Occ. :  44           Doubly Vir.: 143   *
  *  Frozen Occ. :  29           Frozen Vir.:   0   *
  *                                                 *
  *  Total CI configurations:      7314             * 
  *    Active configurations:         6             * 
  *      Hole configurations:        15             * 
  *  Particle configurations:      7293             * 
  *                                                 *
  *   Requested states:       10                    *
  *  Spin multiplicity: Any multiplicity            *
  *                                                 *
  ***************************************************
-----------------------------------------
    Memory requirements of RASCI

 Each CI-vector requires      0.06 MiB 
 Max. subspace vectors           1000      

 Reduced Lists                0.00 MiB 
 Excitation Lists             0.00 MiB 
 Excitation Lists Sign        0.00 MiB 
 CI-space (Max)              64.00 MiB 
 Integrals                   22.65 MiB 
 Memory required (Max)       64.00 MiB 
 Memory available          1907.35 MiB 

    Disk requirements of RASCI

 Fock matrix                  0.57 MiB 
 2-electron integrals        24.43 MiB 
 CI-space                   111.60 MiB 
 Disk required              136.60 MiB 
-----------------------------------------
  
RAS1 HF-like energy:          -3448.8320668168
 Computing integrals
 Computing J and K matrices
 Computing addressing
 Making amplitude guesses
 
Direct CI diagonalization
 ---------------------------------------------------
 Iter    Rts Conv    Rts Left    Ttl Dev     Max Dev
 ---------------------------------------------------
   1         0          10      0.021459    0.004584
   2         0          10      0.012133    0.002302
   3         0          10      0.007693    0.001767
   4         0          10      0.012342    0.002729
   5         0          10      0.008203    0.001926
   6         0          10      0.008328    0.002239
   7         0          10      0.006640    0.001824
   8         0          10      0.010454    0.002992
   9         0          10      0.004556    0.001182
  10         0          10      0.005756    0.001645
  11         0          10      0.003105    0.000777
  12         0          10      0.003307    0.000709
  13         1           9      0.001715    0.000559
  14         0          10      0.001193    0.000251
  15         1           9      0.000920    0.000230
  16         0          10      0.000760    0.000159
  17         1           9      0.000526    0.000158
  18         2           8      0.000305    0.000086
  19         2           8      0.000321    0.000089
  20         2           8      0.000210    0.000062
  21         3           7      0.000142    0.000041
  22         3           7      0.000072    0.000029
  23         3           7      0.000065    0.000026
  24         5           5      0.000043    0.000015
  25         5           5      0.000035    0.000015
  26         7           3      0.000023    0.000010
  27         7           3      0.000022    0.000012
  28         8           2      0.000015    0.000005
  29         8           2      0.000013    0.000005
  30         8           2      0.000011    0.000004
  31         9           1      0.000010    0.000003
  32         9           1      0.000008    0.000002
  33        10           0      0.000007    0.000001    Roots Converged
 ---------------------------------------------------
   
**************************************************
 RAS-CI total energy for state   1:  -3477.128174585171
  Excitation energy (eV) =  0.000000000000
  Warning: not all configurations have same symmetry
  State symmetry: *B3u   (D2h      )
  <S^2>      :  0.7500
  Dipole Moment:   -0.0000 X    -0.0000 Y    -0.0000 Z
 NATURAL OCCUPATION NUMBERS (higher than 1.0E-05)
            1           2           3           4           5           6
    1   2.0000000   2.0000000   2.0000000   2.0000000   2.0000000   2.0000000
            7           8           9          10          11          12
    1   2.0000000   2.0000000   2.0000000   2.0000000   2.0000000   2.0000000
           13          14          15          16          17          18
    1   2.0000000   2.0000000   2.0000000   2.0000000   2.0000000   2.0000000
           19          20          21          22          23          24
    1   2.0000000   2.0000000   2.0000000   2.0000000   2.0000000   2.0000000
           25          26          27          28          29          30
    1   2.0000000   2.0000000   2.0000000   2.0000000   2.0000000   2.0000000
           31          32          33          34          35          36
    1   2.0000000   2.0000000   2.0000000   2.0000000   2.0000000   2.0000000
           37          38          39          40          41          42
    1   2.0000000   2.0000000   2.0000000   2.0000000   2.0000000   2.0000000
           43          44          45          46          47          48
    1   2.0000000   1.9999966   1.9980789   1.9972729   1.9972729   1.9940297
           49          50          51          52          53          54
    1   1.9885021   1.0077553   0.0054767   0.0037200   0.0025961   0.0025961
           55          56          57          58          59          60
    1   0.0018811   0.0002455   0.0002212   0.0000955   0.0000841   0.0000489
           61          62          63
    1   0.0000489   0.0000412   0.0000167

  Amplitudes : 
  
 | HOLE  | ALPHA  | BETA   | PART  |    AMPLITUDE 
--------------------------------------------------
 |       | 111111 | 111110 |       |     8.7939728049517E-01
 |       | 111111 | 011111 |       |     3.8579181733017E-01
--------------------------------------------------
*** Contributions RASCI wfn    Active:  92.22
                                 Hole:   0.02
                                 Part:   7.76

      Mulliken population analysis 
 ---------------------------------------------------
   Atom    Charge (a.u.)   Spin (a.u.)  
 ---------------------------------------------------
   1 Cu    1.228291        0.721842 
   2 Cl   -0.807073        0.069540 
   3 Cl   -0.807073        0.069540 
   4 Cl   -0.807073        0.069540 
   5 Cl   -0.807073        0.069540 
 ---------------------------------------------------
   Sum:   -2.000000        1.000000 
 ---------------------------------------------------
 
  
 NATURAL OCCUPATION NUMBERS (higher than 1.0E-05)
            1           2           3           4           5           6
    1   2.0000000   2.0000000   2.0000000   2.0000000   2.0000000   2.0000000
            7           8           9          10          11          12
    1   2.0000000   2.0000000   2.0000000   2.0000000   2.0000000   2.0000000
           13          14          15          16          17          18
    1   2.0000000   2.0000000   2.0000000   2.0000000   2.0000000   2.0000000
           19          20          21          22          23          24
    1   2.0000000   2.0000000   2.0000000   2.0000000   2.0000000   2.0000000
           25          26          27          28          29          30
    1   2.0000000   2.0000000   2.0000000   2.0000000   2.0000000   2.0000000
           31          32          33          34          35          36
    1   2.0000000   2.0000000   2.0000000   2.0000000   2.0000000   2.0000000
           37          38          39          40          41          42
    1   2.0000000   2.0000000   2.0000000   2.0000000   2.0000000   2.0000000
           43          44          45          46          47          48
    1   2.0000000   1.9999966   1.9980789   1.9972729   1.9972729   1.9940297
           49          50          51          52          53          54
    1   1.9885021   1.0077553   0.0054767   0.0037200   0.0025961   0.0025961
           55          56          57          58          59          60
    1   0.0018811   0.0002455   0.0002212   0.0000955   0.0000841   0.0000489
           61          62          63
    1   0.0000489   0.0000412   0.0000167
  
*** Unpaired Electrons
 Yamaguchi Nd:         1.08
 Head-Gordon Nu:       1.03
 Head-Gordon Nu_nl:    1.00
  
**************************************************
 RAS-CI total energy for state   2:  -3477.036995972988
  Excitation energy (eV) =  2.481096271729
  Warning: not all configurations have same symmetry
  State symmetry: *B2u   (D2h      )
  <S^2>      :  0.7500
  Dipole Moment:   -0.0000 X    -0.0000 Y    -0.0000 Z
  Trans. Moment:   -0.0000 X     0.0000 Y     0.0000 Z
  Strength   :  0.000000
  Natural transition orbitals ( 1 -> 2 ):
   e-/hole pair  1 alpha:  ampl =  0.008673 (  0.0%)   [6 : 7]
   e-/hole pair  2 alpha:  ampl =  0.006070 (  0.0%)   [5 : 8]
   e-/hole pair  1 beta :  ampl =  0.970329 ( 94.2%)   [6 : 7]
   e-/hole pair  2 beta :  ampl =  0.065913 (  0.4%)   [5 : 8]
   Sum of square amplitudes: 0.95

 NATURAL OCCUPATION NUMBERS (higher than 1.0E-05)
            1           2           3           4           5           6
    1   2.0000000   2.0000000   2.0000000   2.0000000   2.0000000   2.0000000
            7           8           9          10          11          12
    1   2.0000000   2.0000000   2.0000000   2.0000000   2.0000000   2.0000000
           13          14          15          16          17          18
    1   2.0000000   2.0000000   2.0000000   2.0000000   2.0000000   2.0000000
           19          20          21          22          23          24
    1   2.0000000   2.0000000   2.0000000   2.0000000   2.0000000   2.0000000
           25          26          27          28          29          30
    1   2.0000000   2.0000000   2.0000000   2.0000000   2.0000000   2.0000000
           31          32          33          34          35          36
    1   2.0000000   2.0000000   2.0000000   2.0000000   2.0000000   2.0000000
           37          38          39          40          41          42
    1   2.0000000   2.0000000   2.0000000   2.0000000   2.0000000   2.0000000
           43          44          45          46          47          48
    1   2.0000000   1.9994582   1.9968509   1.9937777   1.9894226   1.9820921
           49          50          51          52          53          54
    1   1.9585696   1.0365903   0.0178527   0.0103435   0.0061272   0.0053307
           55          56          57          58
    1   0.0030444   0.0004650   0.0000323   0.0000172

  Amplitudes : 
  
 | HOLE  | ALPHA  | BETA   | PART  |    AMPLITUDE 
--------------------------------------------------
 |       | 111111 | 111101 |       |    -6.4679461166511E-01
 |  41   | 111111 | 111111 |       |     7.0207663215513E-01
--------------------------------------------------
*** Contributions RASCI wfn    Active:  42.50
                                 Hole:  50.08
                                 Part:   7.42

      Mulliken population analysis 
 ---------------------------------------------------
   Atom    Charge (a.u.)   Spin (a.u.)  
 ---------------------------------------------------
   1 Cu    1.422455        0.880631 
   2 Cl   -0.885919        0.000711 
   3 Cl   -0.825308        0.058973 
   4 Cl   -0.825308        0.058973 
   5 Cl   -0.885919        0.000711 
 ---------------------------------------------------
   Sum:   -2.000000        1.000000 
 ---------------------------------------------------
 
  
 NATURAL OCCUPATION NUMBERS (higher than 1.0E-05)
            1           2           3           4           5           6
    1   2.0000000   2.0000000   2.0000000   2.0000000   2.0000000   2.0000000
            7           8           9          10          11          12
    1   2.0000000   2.0000000   2.0000000   2.0000000   2.0000000   2.0000000
           13          14          15          16          17          18
    1   2.0000000   2.0000000   2.0000000   2.0000000   2.0000000   2.0000000
           19          20          21          22          23          24
    1   2.0000000   2.0000000   2.0000000   2.0000000   2.0000000   2.0000000
           25          26          27          28          29          30
    1   2.0000000   2.0000000   2.0000000   2.0000000   2.0000000   2.0000000
           31          32          33          34          35          36
    1   2.0000000   2.0000000   2.0000000   2.0000000   2.0000000   2.0000000
           37          38          39          40          41          42
    1   2.0000000   2.0000000   2.0000000   2.0000000   2.0000000   2.0000000
           43          44          45          46          47          48
    1   2.0000000   1.9994582   1.9968509   1.9937777   1.9894226   1.9820921
           49          50          51          52          53          54
    1   1.9585696   1.0365903   0.0178527   0.0103435   0.0061272   0.0053307
           55          56          57          58
    1   0.0030444   0.0004650   0.0000323   0.0000172
  
*** Unpaired Electrons
 Yamaguchi Nd:         1.24
 Head-Gordon Nu:       1.09
 Head-Gordon Nu_nl:    1.01
  
**************************************************
 RAS-CI total energy for state   3:  -3477.036995971949
  Excitation energy (eV) =  2.481096299990
  Warning: not all configurations have same symmetry
  State symmetry: *B3u   (D2h      )
  <S^2>      :  0.7500
  Dipole Moment:    0.0000 X    -0.0000 Y    -0.0000 Z
  Trans. Moment:   -0.0000 X     0.0000 Y    -0.0000 Z
  Strength   :  0.000000
  Natural transition orbitals ( 1 -> 3 ):
   e-/hole pair  1 alpha:  ampl =  0.008673 (  0.0%)   [6 : 7]
   e-/hole pair  2 alpha:  ampl =  0.006070 (  0.0%)   [5 : 8]
   e-/hole pair  1 beta :  ampl =  0.970329 ( 94.2%)   [6 : 7]
   e-/hole pair  2 beta :  ampl =  0.065910 (  0.4%)   [5 : 8]
   Sum of square amplitudes: 0.95

 NATURAL OCCUPATION NUMBERS (higher than 1.0E-05)
            1           2           3           4           5           6
    1   2.0000000   2.0000000   2.0000000   2.0000000   2.0000000   2.0000000
            7           8           9          10          11          12
    1   2.0000000   2.0000000   2.0000000   2.0000000   2.0000000   2.0000000
           13          14          15          16          17          18
    1   2.0000000   2.0000000   2.0000000   2.0000000   2.0000000   2.0000000
           19          20          21          22          23          24
    1   2.0000000   2.0000000   2.0000000   2.0000000   2.0000000   2.0000000
           25          26          27          28          29          30
    1   2.0000000   2.0000000   2.0000000   2.0000000   2.0000000   2.0000000
           31          32          33          34          35          36
    1   2.0000000   2.0000000   2.0000000   2.0000000   2.0000000   2.0000000
           37          38          39          40          41          42
    1   2.0000000   2.0000000   2.0000000   2.0000000   2.0000000   2.0000000
           43          44          45          46          47          48
    1   2.0000000   1.9994584   1.9968509   1.9937776   1.9894237   1.9820909
           49          50          51          52          53          54
    1   1.9585693   1.0365904   0.0178539   0.0103424   0.0061273   0.0053310
           55          56          57          58
    1   0.0030444   0.0004649   0.0000323   0.0000172

  Amplitudes : 
  
 | HOLE  | ALPHA  | BETA   | PART  |    AMPLITUDE 
--------------------------------------------------
 |       | 111111 | 111011 |       |     6.4679431146708E-01
 |  40   | 111111 | 111111 |       |     7.0207664831540E-01
--------------------------------------------------
*** Contributions RASCI wfn    Active:  42.50
                                 Hole:  50.08
                                 Part:   7.42

      Mulliken population analysis 
 ---------------------------------------------------
   Atom    Charge (a.u.)   Spin (a.u.)  
 ---------------------------------------------------
   1 Cu    1.422458        0.880631 
   2 Cl   -0.825311        0.058973 
   3 Cl   -0.885919        0.000712 
   4 Cl   -0.885919        0.000712 
   5 Cl   -0.825311        0.058973 
 ---------------------------------------------------
   Sum:   -2.000000        1.000000 
 ---------------------------------------------------
 
  
 NATURAL OCCUPATION NUMBERS (higher than 1.0E-05)
            1           2           3           4           5           6
    1   2.0000000   2.0000000   2.0000000   2.0000000   2.0000000   2.0000000
            7           8           9          10          11          12
    1   2.0000000   2.0000000   2.0000000   2.0000000   2.0000000   2.0000000
           13          14          15          16          17          18
    1   2.0000000   2.0000000   2.0000000   2.0000000   2.0000000   2.0000000
           19          20          21          22          23          24
    1   2.0000000   2.0000000   2.0000000   2.0000000   2.0000000   2.0000000
           25          26          27          28          29          30
    1   2.0000000   2.0000000   2.0000000   2.0000000   2.0000000   2.0000000
           31          32          33          34          35          36
    1   2.0000000   2.0000000   2.0000000   2.0000000   2.0000000   2.0000000
           37          38          39          40          41          42
    1   2.0000000   2.0000000   2.0000000   2.0000000   2.0000000   2.0000000
           43          44          45          46          47          48
    1   2.0000000   1.9994584   1.9968509   1.9937776   1.9894237   1.9820909
           49          50          51          52          53          54
    1   1.9585693   1.0365904   0.0178539   0.0103424   0.0061273   0.0053310
           55          56          57          58
    1   0.0030444   0.0004649   0.0000323   0.0000172
  
*** Unpaired Electrons
 Yamaguchi Nd:         1.24
 Head-Gordon Nu:       1.09
 Head-Gordon Nu_nl:    1.01
  
**************************************************
 RAS-CI total energy for state   4:  -3477.008706364892
  Excitation energy (eV) =  3.250895674187
  Warning: not all configurations have same symmetry
  State symmetry: *B2u   (D2h      )
  <S^2>      :  0.7500
  Dipole Moment:    0.0000 X    -0.0000 Y    -0.0000 Z
  Trans. Moment:   -0.0000 X    -0.0000 Y     0.0000 Z
  Strength   :  0.000000
  Natural transition orbitals ( 1 -> 4 ):
   e-/hole pair  1 alpha:  ampl =  0.004681 (  0.0%)   [6 : 7]
   e-/hole pair  2 alpha:  ampl =  0.002928 (  0.0%)   [5 : 8]
   e-/hole pair  1 beta :  ampl =  0.958503 ( 91.9%)   [6 : 7]
   e-/hole pair  2 beta :  ampl =  0.073837 (  0.5%)   [5 : 8]
   Sum of square amplitudes: 0.92

 NATURAL OCCUPATION NUMBERS (higher than 1.0E-05)
            1           2           3           4           5           6
    1   2.0000000   2.0000000   2.0000000   2.0000000   2.0000000   2.0000000
            7           8           9          10          11          12
    1   2.0000000   2.0000000   2.0000000   2.0000000   2.0000000   2.0000000
           13          14          15          16          17          18
    1   2.0000000   2.0000000   2.0000000   2.0000000   2.0000000   2.0000000
           19          20          21          22          23          24
    1   2.0000000   2.0000000   2.0000000   2.0000000   2.0000000   2.0000000
           25          26          27          28          29          30
    1   2.0000000   2.0000000   2.0000000   2.0000000   2.0000000   2.0000000
           31          32          33          34          35          36
    1   2.0000000   2.0000000   2.0000000   2.0000000   2.0000000   2.0000000
           37          38          39          40          41          42
    1   2.0000000   2.0000000   2.0000000   2.0000000   2.0000000   2.0000000
           43          44          45          46          47          48
    1   2.0000000   1.9996087   1.9938670   1.9938670   1.9881372   1.9847379
           49          50          51          52          53          54
    1   1.9574116   1.0405866   0.0151385   0.0117716   0.0060192   0.0060192
           55          56          57          58
    1   0.0024218   0.0003542   0.0000181   0.0000132

  Amplitudes : 
  
 | HOLE  | ALPHA  | BETA   | PART  |    AMPLITUDE 
--------------------------------------------------
 |       | 111111 | 110111 |       |    -3.8850645773121E-01
 |  38   | 111111 | 111111 |       |     8.9443798403818E-01
--------------------------------------------------
*** Contributions RASCI wfn    Active:  15.09
                                 Hole:  80.00
                                 Part:   4.90

      Mulliken population analysis 
 ---------------------------------------------------
   Atom    Charge (a.u.)   Spin (a.u.)  
 ---------------------------------------------------
   1 Cu    1.425626        0.822924 
   2 Cl   -0.856406        0.044269 
   3 Cl   -0.856406        0.044269 
   4 Cl   -0.856406        0.044269 
   5 Cl   -0.856406        0.044269 
 ---------------------------------------------------
   Sum:   -2.000000        1.000000 
 ---------------------------------------------------
 
  
 NATURAL OCCUPATION NUMBERS (higher than 1.0E-05)
            1           2           3           4           5           6
    1   2.0000000   2.0000000   2.0000000   2.0000000   2.0000000   2.0000000
            7           8           9          10          11          12
    1   2.0000000   2.0000000   2.0000000   2.0000000   2.0000000   2.0000000
           13          14          15          16          17          18
    1   2.0000000   2.0000000   2.0000000   2.0000000   2.0000000   2.0000000
           19          20          21          22          23          24
    1   2.0000000   2.0000000   2.0000000   2.0000000   2.0000000   2.0000000
           25          26          27          28          29          30
    1   2.0000000   2.0000000   2.0000000   2.0000000   2.0000000   2.0000000
           31          32          33          34          35          36
    1   2.0000000   2.0000000   2.0000000   2.0000000   2.0000000   2.0000000
           37          38          39          40          41          42
    1   2.0000000   2.0000000   2.0000000   2.0000000   2.0000000   2.0000000
           43          44          45          46          47          48
    1   2.0000000   1.9996087   1.9938670   1.9938670   1.9881372   1.9847379
           49          50          51          52          53          54
    1   1.9574116   1.0405866   0.0151385   0.0117716   0.0060192   0.0060192
           55          56          57          58
    1   0.0024218   0.0003542   0.0000181   0.0000132
  
*** Unpaired Electrons
 Yamaguchi Nd:         1.24
 Head-Gordon Nu:       1.08
 Head-Gordon Nu_nl:    1.01
  
**************************************************
 RAS-CI total energy for state   5:  -3476.978308745965
  Excitation energy (eV) =  4.078056969829
  State symmetry: Ag    (D2h      )
  <S^2>      :  0.7500
  Dipole Moment:    0.0000 X     0.0000 Y    -0.0000 Z
  Trans. Moment:    0.0000 X     0.0000 Y    -0.0000 Z
  Strength   :  0.000000
  Natural transition orbitals ( 1 -> 5 ):
   e-/hole pair  1 alpha:  ampl =  0.003364 (  0.0%)   [6 : 7]
   e-/hole pair  2 alpha:  ampl =  0.003103 (  0.0%)   [5 : 8]
   e-/hole pair  1 beta :  ampl =  0.958786 ( 91.9%)   [6 : 7]
   e-/hole pair  2 beta :  ampl =  0.025066 (  0.1%)   [5 : 8]
   Sum of square amplitudes: 0.92

 NATURAL OCCUPATION NUMBERS (higher than 1.0E-05)
            1           2           3           4           5           6
    1   2.0000000   2.0000000   2.0000000   2.0000000   2.0000000   2.0000000
            7           8           9          10          11          12
    1   2.0000000   2.0000000   2.0000000   2.0000000   2.0000000   2.0000000
           13          14          15          16          17          18
    1   2.0000000   2.0000000   2.0000000   2.0000000   2.0000000   2.0000000
           19          20          21          22          23          24
    1   2.0000000   2.0000000   2.0000000   2.0000000   2.0000000   2.0000000
           25          26          27          28          29          30
    1   2.0000000   2.0000000   2.0000000   2.0000000   2.0000000   2.0000000
           31          32          33          34          35          36
    1   2.0000000   2.0000000   2.0000000   2.0000000   2.0000000   2.0000000
           37          38          39          40          41          42
    1   2.0000000   2.0000000   2.0000000   2.0000000   2.0000000   2.0000000
           43          44          45          46          47          48
    1   2.0000000   1.9999420   1.9999275   1.9999275   1.9997344   1.9970696
           49          50          51          52          53          54
    1   1.9967192   1.0033400   0.0028220   0.0001775   0.0000621   0.0000621
           55          56          57          58          59
    1   0.0000613   0.0000422   0.0000316   0.0000189   0.0000152

  Amplitudes : 
  
 | HOLE  | ALPHA  | BETA   | PART  |    AMPLITUDE 
--------------------------------------------------
 |  44   | 111111 | 111111 |       |     9.9832861777115E-01
--------------------------------------------------
*** Contributions RASCI wfn    Active:   0.00
                                 Hole:  99.67
                                 Part:   0.33

      Mulliken population analysis 
 ---------------------------------------------------
   Atom    Charge (a.u.)   Spin (a.u.)  
 ---------------------------------------------------
   1 Cu    0.656952        0.001783 
   2 Cl   -0.664238        0.249554 
   3 Cl   -0.664238        0.249554 
   4 Cl   -0.664238        0.249554 
   5 Cl   -0.664238        0.249554 
 ---------------------------------------------------
   Sum:   -2.000000        1.000000 
 ---------------------------------------------------
 
  
 NATURAL OCCUPATION NUMBERS (higher than 1.0E-05)
            1           2           3           4           5           6
    1   2.0000000   2.0000000   2.0000000   2.0000000   2.0000000   2.0000000
            7           8           9          10          11          12
    1   2.0000000   2.0000000   2.0000000   2.0000000   2.0000000   2.0000000
           13          14          15          16          17          18
    1   2.0000000   2.0000000   2.0000000   2.0000000   2.0000000   2.0000000
           19          20          21          22          23          24
    1   2.0000000   2.0000000   2.0000000   2.0000000   2.0000000   2.0000000
           25          26          27          28          29          30
    1   2.0000000   2.0000000   2.0000000   2.0000000   2.0000000   2.0000000
           31          32          33          34          35          36
    1   2.0000000   2.0000000   2.0000000   2.0000000   2.0000000   2.0000000
           37          38          39          40          41          42
    1   2.0000000   2.0000000   2.0000000   2.0000000   2.0000000   2.0000000
           43          44          45          46          47          48
    1   2.0000000   1.9999420   1.9999275   1.9999275   1.9997344   1.9970696
           49          50          51          52          53          54
    1   1.9967192   1.0033400   0.0028220   0.0001775   0.0000621   0.0000621
           55          56          57          58          59
    1   0.0000613   0.0000422   0.0000316   0.0000189   0.0000152
  
*** Unpaired Electrons
 Yamaguchi Nd:         1.02
 Head-Gordon Nu:       1.01
 Head-Gordon Nu_nl:    1.00
  
**************************************************
 RAS-CI total energy for state   6:  -3476.958806482695
  Excitation energy (eV) =  4.608740553742
  State symmetry: Ag    (D2h      )
  <S^2>      :  0.7500
  Dipole Moment:    0.0000 X    -0.0000 Y    -0.0000 Z
  Trans. Moment:    0.9436 X    -0.0839 Y     0.0000 Z
  Strength   :  0.101331
  Natural transition orbitals ( 1 -> 6 ):
   e-/hole pair  1 alpha:  ampl =  0.023520 (  0.1%)   [6 : 7]
   e-/hole pair  2 alpha:  ampl =  0.008047 (  0.0%)   [5 : 8]
   e-/hole pair  1 beta :  ampl =  0.957710 ( 91.7%)   [6 : 7]
   e-/hole pair  2 beta :  ampl =  0.021679 (  0.0%)   [5 : 8]
   Sum of square amplitudes: 0.92

 NATURAL OCCUPATION NUMBERS (higher than 1.0E-05)
            1           2           3           4           5           6
    1   2.0000000   2.0000000   2.0000000   2.0000000   2.0000000   2.0000000
            7           8           9          10          11          12
    1   2.0000000   2.0000000   2.0000000   2.0000000   2.0000000   2.0000000
           13          14          15          16          17          18
    1   2.0000000   2.0000000   2.0000000   2.0000000   2.0000000   2.0000000
           19          20          21          22          23          24
    1   2.0000000   2.0000000   2.0000000   2.0000000   2.0000000   2.0000000
           25          26          27          28          29          30
    1   2.0000000   2.0000000   2.0000000   2.0000000   2.0000000   2.0000000
           31          32          33          34          35          36
    1   2.0000000   2.0000000   2.0000000   2.0000000   2.0000000   2.0000000
           37          38          39          40          41          42
    1   2.0000000   2.0000000   2.0000000   2.0000000   2.0000000   2.0000000
           43          44          45          46          47          48
    1   2.0000000   1.9998594   1.9995995   1.9995781   1.9984652   1.9979734
           49          50          51          52          53          54
    1   1.9933732   1.0055756   0.0024951   0.0013593   0.0005955   0.0003754
           55          56          57          58          59          60
    1   0.0002488   0.0001410   0.0000957   0.0000770   0.0000577   0.0000469
           61          62
    1   0.0000227   0.0000162

  Amplitudes : 
  
 | HOLE  | ALPHA  | BETA   | PART  |    AMPLITUDE 
--------------------------------------------------
 |  43   | 111111 | 111111 |       |     9.9183006501294E-01
--------------------------------------------------
*** Contributions RASCI wfn    Active:   0.00
                                 Hole:  99.44
                                 Part:   0.56

      Mulliken population analysis 
 ---------------------------------------------------
   Atom    Charge (a.u.)   Spin (a.u.)  
 ---------------------------------------------------
   1 Cu    0.657003        0.000839 
   2 Cl   -0.731427        0.182939 
   3 Cl   -0.597074        0.316642 
   4 Cl   -0.597074        0.316642 
   5 Cl   -0.731427        0.182939 
 ---------------------------------------------------
   Sum:   -2.000000        1.000000 
 ---------------------------------------------------
 
  
 NATURAL OCCUPATION NUMBERS (higher than 1.0E-05)
            1           2           3           4           5           6
    1   2.0000000   2.0000000   2.0000000   2.0000000   2.0000000   2.0000000
            7           8           9          10          11          12
    1   2.0000000   2.0000000   2.0000000   2.0000000   2.0000000   2.0000000
           13          14          15          16          17          18
    1   2.0000000   2.0000000   2.0000000   2.0000000   2.0000000   2.0000000
           19          20          21          22          23          24
    1   2.0000000   2.0000000   2.0000000   2.0000000   2.0000000   2.0000000
           25          26          27          28          29          30
    1   2.0000000   2.0000000   2.0000000   2.0000000   2.0000000   2.0000000
           31          32          33          34          35          36
    1   2.0000000   2.0000000   2.0000000   2.0000000   2.0000000   2.0000000
           37          38          39          40          41          42
    1   2.0000000   2.0000000   2.0000000   2.0000000   2.0000000   2.0000000
           43          44          45          46          47          48
    1   2.0000000   1.9998594   1.9995995   1.9995781   1.9984652   1.9979734
           49          50          51          52          53          54
    1   1.9933732   1.0055756   0.0024951   0.0013593   0.0005955   0.0003754
           55          56          57          58          59          60
    1   0.0002488   0.0001410   0.0000957   0.0000770   0.0000577   0.0000469
           61          62
    1   0.0000227   0.0000162
  
*** Unpaired Electrons
 Yamaguchi Nd:         1.03
 Head-Gordon Nu:       1.01
 Head-Gordon Nu_nl:    1.00
  
**************************************************
 RAS-CI total energy for state   7:  -3476.958806482681
  Excitation energy (eV) =  4.608740554129
  State symmetry: Ag    (D2h      )
  <S^2>      :  0.7500
  Dipole Moment:   -0.0000 X    -0.0000 Y    -0.0000 Z
  Trans. Moment:    0.0839 X     0.9436 Y    -0.0000 Z
  Strength   :  0.101331
  Natural transition orbitals ( 1 -> 7 ):
   e-/hole pair  1 alpha:  ampl =  0.023520 (  0.1%)   [6 : 7]
   e-/hole pair  2 alpha:  ampl =  0.008047 (  0.0%)   [5 : 8]
   e-/hole pair  1 beta :  ampl =  0.957710 ( 91.7%)   [6 : 7]
   e-/hole pair  2 beta :  ampl =  0.021679 (  0.0%)   [5 : 8]
   Sum of square amplitudes: 0.92

 NATURAL OCCUPATION NUMBERS (higher than 1.0E-05)
            1           2           3           4           5           6
    1   2.0000000   2.0000000   2.0000000   2.0000000   2.0000000   2.0000000
            7           8           9          10          11          12
    1   2.0000000   2.0000000   2.0000000   2.0000000   2.0000000   2.0000000
           13          14          15          16          17          18
    1   2.0000000   2.0000000   2.0000000   2.0000000   2.0000000   2.0000000
           19          20          21          22          23          24
    1   2.0000000   2.0000000   2.0000000   2.0000000   2.0000000   2.0000000
           25          26          27          28          29          30
    1   2.0000000   2.0000000   2.0000000   2.0000000   2.0000000   2.0000000
           31          32          33          34          35          36
    1   2.0000000   2.0000000   2.0000000   2.0000000   2.0000000   2.0000000
           37          38          39          40          41          42
    1   2.0000000   2.0000000   2.0000000   2.0000000   2.0000000   2.0000000
           43          44          45          46          47          48
    1   2.0000000   1.9998594   1.9995995   1.9995781   1.9984652   1.9979734
           49          50          51          52          53          54
    1   1.9933732   1.0055756   0.0024951   0.0013593   0.0005955   0.0003754
           55          56          57          58          59          60
    1   0.0002488   0.0001410   0.0000957   0.0000770   0.0000577   0.0000469
           61          62
    1   0.0000227   0.0000162

  Amplitudes : 
  
 | HOLE  | ALPHA  | BETA   | PART  |    AMPLITUDE 
--------------------------------------------------
 |  42   | 111111 | 111111 |       |     9.9183006483001E-01
--------------------------------------------------
*** Contributions RASCI wfn    Active:   0.00
                                 Hole:  99.44
                                 Part:   0.56

      Mulliken population analysis 
 ---------------------------------------------------
   Atom    Charge (a.u.)   Spin (a.u.)  
 ---------------------------------------------------
   1 Cu    0.657003        0.000839 
   2 Cl   -0.597074        0.316642 
   3 Cl   -0.731427        0.182939 
   4 Cl   -0.731427        0.182939 
   5 Cl   -0.597074        0.316642 
 ---------------------------------------------------
   Sum:   -2.000000        1.000000 
 ---------------------------------------------------
 
  
 NATURAL OCCUPATION NUMBERS (higher than 1.0E-05)
            1           2           3           4           5           6
    1   2.0000000   2.0000000   2.0000000   2.0000000   2.0000000   2.0000000
            7           8           9          10          11          12
    1   2.0000000   2.0000000   2.0000000   2.0000000   2.0000000   2.0000000
           13          14          15          16          17          18
    1   2.0000000   2.0000000   2.0000000   2.0000000   2.0000000   2.0000000
           19          20          21          22          23          24
    1   2.0000000   2.0000000   2.0000000   2.0000000   2.0000000   2.0000000
           25          26          27          28          29          30
    1   2.0000000   2.0000000   2.0000000   2.0000000   2.0000000   2.0000000
           31          32          33          34          35          36
    1   2.0000000   2.0000000   2.0000000   2.0000000   2.0000000   2.0000000
           37          38          39          40          41          42
    1   2.0000000   2.0000000   2.0000000   2.0000000   2.0000000   2.0000000
           43          44          45          46          47          48
    1   2.0000000   1.9998594   1.9995995   1.9995781   1.9984652   1.9979734
           49          50          51          52          53          54
    1   1.9933732   1.0055756   0.0024951   0.0013593   0.0005955   0.0003754
           55          56          57          58          59          60
    1   0.0002488   0.0001410   0.0000957   0.0000770   0.0000577   0.0000469
           61          62
    1   0.0000227   0.0000162
  
*** Unpaired Electrons
 Yamaguchi Nd:         1.03
 Head-Gordon Nu:       1.01
 Head-Gordon Nu_nl:    1.00
  
**************************************************
 RAS-CI total energy for state   8:  -3476.957089795337
  Excitation energy (eV) =  4.655453993460
  Warning: not all configurations have same symmetry
  State symmetry: *B3u   (D2h      )
  <S^2>      :  0.7500
  Dipole Moment:   -0.0000 X     0.0000 Y    -0.0000 Z
  Trans. Moment:    0.0000 X     0.0000 Y     0.0000 Z
  Strength   :  0.000000
  Natural transition orbitals ( 1 -> 8 ):
   e-/hole pair  1 alpha:  ampl =  0.020606 (  0.0%)   [6 : 7]
   e-/hole pair  2 alpha:  ampl =  0.006105 (  0.0%)   [5 : 8]
   e-/hole pair  1 beta :  ampl =  0.955415 ( 91.3%)   [6 : 7]
   e-/hole pair  2 beta :  ampl =  0.056994 (  0.3%)   [5 : 8]
   Sum of square amplitudes: 0.92

 NATURAL OCCUPATION NUMBERS (higher than 1.0E-05)
            1           2           3           4           5           6
    1   2.0000000   2.0000000   2.0000000   2.0000000   2.0000000   2.0000000
            7           8           9          10          11          12
    1   2.0000000   2.0000000   2.0000000   2.0000000   2.0000000   2.0000000
           13          14          15          16          17          18
    1   2.0000000   2.0000000   2.0000000   2.0000000   2.0000000   2.0000000
           19          20          21          22          23          24
    1   2.0000000   2.0000000   2.0000000   2.0000000   2.0000000   2.0000000
           25          26          27          28          29          30
    1   2.0000000   2.0000000   2.0000000   2.0000000   2.0000000   2.0000000
           31          32          33          34          35          36
    1   2.0000000   2.0000000   2.0000000   2.0000000   2.0000000   2.0000000
           37          38          39          40          41          42
    1   2.0000000   2.0000000   2.0000000   2.0000000   2.0000000   2.0000000
           43          44          45          46          47          48
    1   2.0000000   1.9992972   1.9982150   1.9955030   1.9955030   1.9918875
           49          50          51          52          53          54
    1   1.9712701   1.0239478   0.0066511   0.0066170   0.0044225   0.0044225
           55          56          57          58          59          60
    1   0.0016102   0.0002749   0.0001818   0.0000492   0.0000491   0.0000201
           61          62          63
    1   0.0000201   0.0000168   0.0000123

  Amplitudes : 
  
 | HOLE  | ALPHA  | BETA   | PART  |    AMPLITUDE 
--------------------------------------------------
 |       | 111111 | 101111 |       |    -2.0121414121324E-01
 |  37   | 111111 | 111111 |       |     9.6657112617739E-01
--------------------------------------------------
*** Contributions RASCI wfn    Active:   4.05
                                 Hole:  93.43
                                 Part:   2.52

      Mulliken population analysis 
 ---------------------------------------------------
   Atom    Charge (a.u.)   Spin (a.u.)  
 ---------------------------------------------------
   1 Cu    1.536982        0.903598 
   2 Cl   -0.884245        0.024100 
   3 Cl   -0.884245        0.024100 
   4 Cl   -0.884245        0.024100 
   5 Cl   -0.884245        0.024100 
 ---------------------------------------------------
   Sum:   -2.000000        1.000000 
 ---------------------------------------------------
 
  
 NATURAL OCCUPATION NUMBERS (higher than 1.0E-05)
            1           2           3           4           5           6
    1   2.0000000   2.0000000   2.0000000   2.0000000   2.0000000   2.0000000
            7           8           9          10          11          12
    1   2.0000000   2.0000000   2.0000000   2.0000000   2.0000000   2.0000000
           13          14          15          16          17          18
    1   2.0000000   2.0000000   2.0000000   2.0000000   2.0000000   2.0000000
           19          20          21          22          23          24
    1   2.0000000   2.0000000   2.0000000   2.0000000   2.0000000   2.0000000
           25          26          27          28          29          30
    1   2.0000000   2.0000000   2.0000000   2.0000000   2.0000000   2.0000000
           31          32          33          34          35          36
    1   2.0000000   2.0000000   2.0000000   2.0000000   2.0000000   2.0000000
           37          38          39          40          41          42
    1   2.0000000   2.0000000   2.0000000   2.0000000   2.0000000   2.0000000
           43          44          45          46          47          48
    1   2.0000000   1.9992972   1.9982150   1.9955030   1.9955030   1.9918875
           49          50          51          52          53          54
    1   1.9712701   1.0239478   0.0066511   0.0066170   0.0044225   0.0044225
           55          56          57          58          59          60
    1   0.0016102   0.0002749   0.0001818   0.0000492   0.0000491   0.0000201
           61          62          63
    1   0.0000201   0.0000168   0.0000123
  
*** Unpaired Electrons
 Yamaguchi Nd:         1.14
 Head-Gordon Nu:       1.05
 Head-Gordon Nu_nl:    1.00
  
**************************************************
 RAS-CI total energy for state   9:  -3476.947444959980
  Excitation energy (eV) =  4.917903316526
  State symmetry: Ag    (D2h      )
  <S^2>      :  0.7500
  Dipole Moment:    0.0000 X     0.0000 Y    -0.0000 Z
  Trans. Moment:    0.0000 X    -0.0000 Y    -0.0191 Z
  Strength   :  0.000044
  Natural transition orbitals ( 1 -> 9 ):
   e-/hole pair  1 alpha:  ampl =  0.004182 (  0.0%)   [6 : 7]
   e-/hole pair  2 alpha:  ampl =  0.002355 (  0.0%)   [5 : 8]
   e-/hole pair  1 beta :  ampl =  0.959172 ( 92.0%)   [6 : 7]
   e-/hole pair  2 beta :  ampl =  0.015537 (  0.0%)   [5 : 8]
   Sum of square amplitudes: 0.92

 NATURAL OCCUPATION NUMBERS (higher than 1.0E-05)
            1           2           3           4           5           6
    1   2.0000000   2.0000000   2.0000000   2.0000000   2.0000000   2.0000000
            7           8           9          10          11          12
    1   2.0000000   2.0000000   2.0000000   2.0000000   2.0000000   2.0000000
           13          14          15          16          17          18
    1   2.0000000   2.0000000   2.0000000   2.0000000   2.0000000   2.0000000
           19          20          21          22          23          24
    1   2.0000000   2.0000000   2.0000000   2.0000000   2.0000000   2.0000000
           25          26          27          28          29          30
    1   2.0000000   2.0000000   2.0000000   2.0000000   2.0000000   2.0000000
           31          32          33          34          35          36
    1   2.0000000   2.0000000   2.0000000   2.0000000   2.0000000   2.0000000
           37          38          39          40          41          42
    1   2.0000000   2.0000000   2.0000000   2.0000000   2.0000000   2.0000000
           43          44          45          46          47          48
    1   2.0000000   1.9998891   1.9998578   1.9997144   1.9987402   1.9987402
           49          50          51          52          53          54
    1   1.9979849   1.0025368   0.0009827   0.0009827   0.0001008   0.0001008
           55          56          57          58          59          60
    1   0.0000574   0.0000530   0.0000490   0.0000490   0.0000379   0.0000273
           61          62          63
    1   0.0000184   0.0000159   0.0000159

  Amplitudes : 
  
 | HOLE  | ALPHA  | BETA   | PART  |    AMPLITUDE 
--------------------------------------------------
 |  39   | 111111 | 111111 |       |     9.9873081345136E-01
--------------------------------------------------
*** Contributions RASCI wfn    Active:   0.00
                                 Hole:  99.75
                                 Part:   0.25

      Mulliken population analysis 
 ---------------------------------------------------
   Atom    Charge (a.u.)   Spin (a.u.)  
 ---------------------------------------------------
   1 Cu    0.657950        0.001724 
   2 Cl   -0.664488        0.249569 
   3 Cl   -0.664488        0.249569 
   4 Cl   -0.664488        0.249569 
   5 Cl   -0.664488        0.249569 
 ---------------------------------------------------
   Sum:   -2.000000        1.000000 
 ---------------------------------------------------
 
  
 NATURAL OCCUPATION NUMBERS (higher than 1.0E-05)
            1           2           3           4           5           6
    1   2.0000000   2.0000000   2.0000000   2.0000000   2.0000000   2.0000000
            7           8           9          10          11          12
    1   2.0000000   2.0000000   2.0000000   2.0000000   2.0000000   2.0000000
           13          14          15          16          17          18
    1   2.0000000   2.0000000   2.0000000   2.0000000   2.0000000   2.0000000
           19          20          21          22          23          24
    1   2.0000000   2.0000000   2.0000000   2.0000000   2.0000000   2.0000000
           25          26          27          28          29          30
    1   2.0000000   2.0000000   2.0000000   2.0000000   2.0000000   2.0000000
           31          32          33          34          35          36
    1   2.0000000   2.0000000   2.0000000   2.0000000   2.0000000   2.0000000
           37          38          39          40          41          42
    1   2.0000000   2.0000000   2.0000000   2.0000000   2.0000000   2.0000000
           43          44          45          46          47          48
    1   2.0000000   1.9998891   1.9998578   1.9997144   1.9987402   1.9987402
           49          50          51          52          53          54
    1   1.9979849   1.0025368   0.0009827   0.0009827   0.0001008   0.0001008
           55          56          57          58          59          60
    1   0.0000574   0.0000530   0.0000490   0.0000490   0.0000379   0.0000273
           61          62          63
    1   0.0000184   0.0000159   0.0000159
  
*** Unpaired Electrons
 Yamaguchi Nd:         1.02
 Head-Gordon Nu:       1.01
 Head-Gordon Nu_nl:    1.00
  
**************************************************
 RAS-CI total energy for state  10:  -3476.925225377665
  Excitation energy (eV) =  5.522528913724
  Warning: not all configurations have same symmetry
  State symmetry: *B2u   (D2h      )
  <S^2>      :  0.7500
  Dipole Moment:    0.0000 X     0.0000 Y    -0.0000 Z
  Trans. Moment:    0.0000 X     0.0000 Y    -0.0000 Z
  Strength   :  0.000000
  Natural transition orbitals ( 1 -> 10 ):
   e-/hole pair  1 alpha:  ampl =  0.005665 (  0.0%)   [6 : 7]
   e-/hole pair  2 alpha:  ampl =  0.004275 (  0.0%)   [5 : 8]
   e-/hole pair  1 beta :  ampl =  0.972241 ( 94.5%)   [6 : 7]
   e-/hole pair  2 beta :  ampl =  0.030599 (  0.1%)   [5 : 8]
   Sum of square amplitudes: 0.95

 NATURAL OCCUPATION NUMBERS (higher than 1.0E-05)
            1           2           3           4           5           6
    1   2.0000000   2.0000000   2.0000000   2.0000000   2.0000000   2.0000000
            7           8           9          10          11          12
    1   2.0000000   2.0000000   2.0000000   2.0000000   2.0000000   2.0000000
           13          14          15          16          17          18
    1   2.0000000   2.0000000   2.0000000   2.0000000   2.0000000   2.0000000
           19          20          21          22          23          24
    1   2.0000000   2.0000000   2.0000000   2.0000000   2.0000000   2.0000000
           25          26          27          28          29          30
    1   2.0000000   2.0000000   2.0000000   2.0000000   2.0000000   2.0000000
           31          32          33          34          35          36
    1   2.0000000   2.0000000   2.0000000   2.0000000   2.0000000   2.0000000
           37          38          39          40          41          42
    1   2.0000000   2.0000000   2.0000000   2.0000000   2.0000000   2.0000000
           43          44          45          46          47          48
    1   2.0000000   1.9997443   1.9996914   1.9993917   1.9984020   1.9961065
           49          50          51          52          53          54
    1   1.9932255   1.0064883   0.0038579   0.0014279   0.0005421   0.0004941
           55          56          57          58          59          60
    1   0.0002706   0.0002185   0.0000517   0.0000218   0.0000181   0.0000105

  Amplitudes : 
  
 | HOLE  | ALPHA  | BETA   | PART  |    AMPLITUDE 
--------------------------------------------------
 |       | 111111 | 111101 |       |     7.0685514514494E-01
 |  41   | 111111 | 111111 |       |     6.8822715898021E-01
--------------------------------------------------
*** Contributions RASCI wfn    Active:  50.64
                                 Hole:  48.00
                                 Part:   1.36

      Mulliken population analysis 
 ---------------------------------------------------
   Atom    Charge (a.u.)   Spin (a.u.)  
 ---------------------------------------------------
   1 Cu    0.698363        0.100082 
   2 Cl   -0.886110        0.005436 
   3 Cl   -0.463071        0.444523 
   4 Cl   -0.463071        0.444523 
   5 Cl   -0.886110        0.005436 
 ---------------------------------------------------
   Sum:   -2.000000        1.000000 
 ---------------------------------------------------
 
  
 NATURAL OCCUPATION NUMBERS (higher than 1.0E-05)
            1           2           3           4           5           6
    1   2.0000000   2.0000000   2.0000000   2.0000000   2.0000000   2.0000000
            7           8           9          10          11          12
    1   2.0000000   2.0000000   2.0000000   2.0000000   2.0000000   2.0000000
           13          14          15          16          17          18
    1   2.0000000   2.0000000   2.0000000   2.0000000   2.0000000   2.0000000
           19          20          21          22          23          24
    1   2.0000000   2.0000000   2.0000000   2.0000000   2.0000000   2.0000000
           25          26          27          28          29          30
    1   2.0000000   2.0000000   2.0000000   2.0000000   2.0000000   2.0000000
           31          32          33          34          35          36
    1   2.0000000   2.0000000   2.0000000   2.0000000   2.0000000   2.0000000
           37          38          39          40          41          42
    1   2.0000000   2.0000000   2.0000000   2.0000000   2.0000000   2.0000000
           43          44          45          46          47          48
    1   2.0000000   1.9997443   1.9996914   1.9993917   1.9984020   1.9961065
           49          50          51          52          53          54
    1   1.9932255   1.0064883   0.0038579   0.0014279   0.0005421   0.0004941
           55          56          57          58          59          60
    1   0.0002706   0.0002185   0.0000517   0.0000218   0.0000181   0.0000105
  
*** Unpaired Electrons
 Yamaguchi Nd:         1.04
 Head-Gordon Nu:       1.01
 Head-Gordon Nu_nl:    1.00
  
--------------------------------------------------
 Interstate Transition Properties
--------------------------------------------------
State A: Root  1
State B: Root  2
  
Angular momentum components
< B | Lx | A > =     0.645702291i
< B | Ly | A > =     0.081623894i
< B | Lz | A > =     0.000000000i
  
Norm of one-particle transition density matrix
||gamma^AB||_total       =  0.972827
||gamma^AB||_symmetrized =  0.688079
||gamma^AB||_anti-symm   =  0.687707
  
Spin-orbit couplings
 Using HF (reference) density for the 2-elec mean-field SOC contribution
KET: S',Sz' (Root   1) =  0.500 0.500
BRA: S ,Sz  (Root   2) =  0.500 0.500
Clebsh-Gordan coefficient: < 0.500, 0.500; 1.000, 0.000| 0.500, 0.500> =  0.577
 Computing 1e-SO integrals
 1e Reduced matrix elements (cm-1)
<S|| Hso(L-) ||S'> =    86.9631783258   687.9402602759
<S|| Hso(L0) ||S'> =     0.0000000000    -0.0000000000
<S|| Hso(L+) ||S'> =    86.9631783258  -687.9402602759
 1-elec SOC matrix (cm-1): < B(S,Sz) | Hso(1e) | A(S',Sz') >
                     |Sz'=-0.50>              |Sz'= 0.50>
 <Sz=-0.50|    0.000000    0.000000i    71.005138 -561.700870i
 <Sz= 0.50|  -71.005138 -561.700870i     0.000000   -0.000000i
1-elec SOCC =   800.686702019 cm-1
 Computing 2e-SOMF integrals
 Averagin spin alpha/beta reference densities
 2e-SOMF Reduced matrix elements (cm-1)
<S|| Hso(L-) ||S'> =   -36.1510608342  -285.9804554947
<S|| Hso(L0) ||S'> =     0.0000000000     0.0000000000
<S|| Hso(L+) ||S'> =   -36.1510608342   285.9804554947
 2-elec mean-field SOC matrix (cm-1): < B(S,Sz) | Hso(2e-mf) | A(S',Sz') >
                     |Sz'=-0.50>              |Sz'= 0.50>
 <Sz=-0.50|    0.000000   -0.000000i   -29.517218  233.502064i
 <Sz= 0.50|   29.517218  233.502064i     0.000000    0.000000i
 Total mean-field SOC matrix (cm-1): < B(S,Sz) | Hsomf | A(S',Sz') >
                     |Sz'=-0.50>              |Sz'= 0.50>
 <Sz=-0.50|    0.000000    0.000000i    41.487920 -328.198806i
 <Sz= 0.50|  -41.487920 -328.198806i     0.000000   -0.000000i
Mean-Field SOCC =   467.836945874 cm-1
   
**************************************************
State A: Root  1
State B: Root  3
  
Angular momentum components
< B | Lx | A > =    -0.081624298i
< B | Ly | A > =     0.645706114i
< B | Lz | A > =     0.000000000i
  
Norm of one-particle transition density matrix
||gamma^AB||_total       =  0.972827
||gamma^AB||_symmetrized =  0.688078
||gamma^AB||_anti-symm   =  0.687707
  
Spin-orbit couplings
 Using HF (reference) density for the 2-elec mean-field SOC contribution
KET: S',Sz' (Root   1) =  0.500 0.500
BRA: S ,Sz  (Root   3) =  0.500 0.500
Clebsh-Gordan coefficient: < 0.500, 0.500; 1.000, 0.000| 0.500, 0.500> =  0.577
 Reading 1e-SO integrals
 1e Reduced matrix elements (cm-1)
<S|| Hso(L-) ||S'> =   687.9384076998   -86.9629859487
<S|| Hso(L0) ||S'> =     0.0000000000    -0.0000000000
<S|| Hso(L+) ||S'> =   687.9384076998    86.9629859487
 1-elec SOC matrix (cm-1): < B(S,Sz) | Hso(1e) | A(S',Sz') >
                     |Sz'=-0.50>              |Sz'= 0.50>
 <Sz=-0.50|    0.000000    0.000000i   561.699358   71.004981i
 <Sz= 0.50| -561.699358   71.004981i     0.000000   -0.000000i
1-elec SOCC =   800.684551879 cm-1
 Reading 2e-SOMF integrals
 2e-SOMF Reduced matrix elements (cm-1)
<S|| Hso(L-) ||S'> =  -285.9798053343    36.1509931058
<S|| Hso(L0) ||S'> =     0.0000000000     0.0000000000
<S|| Hso(L+) ||S'> =  -285.9798053343   -36.1509931058
 2-elec mean-field SOC matrix (cm-1): < B(S,Sz) | Hso(2e-mf) | A(S',Sz') >
                     |Sz'=-0.50>              |Sz'= 0.50>
 <Sz=-0.50|    0.000000   -0.000000i  -233.501533  -29.517162i
 <Sz= 0.50|  233.501533  -29.517162i     0.000000    0.000000i
 Total mean-field SOC matrix (cm-1): < B(S,Sz) | Hsomf | A(S',Sz') >
                     |Sz'=-0.50>              |Sz'= 0.50>
 <Sz=-0.50|    0.000000    0.000000i   328.197825   41.487818i
 <Sz= 0.50| -328.197825   41.487818i     0.000000   -0.000000i
Mean-Field SOCC =   467.835550355 cm-1
   
**************************************************
State A: Root  1
State B: Root  4
  
Angular momentum components
< B | Lx | A > =    -0.000000000i
< B | Ly | A > =     0.000000000i
< B | Lz | A > =     1.294068298i
  
Norm of one-particle transition density matrix
||gamma^AB||_total       =  0.961415
||gamma^AB||_symmetrized =  0.679839
||gamma^AB||_anti-symm   =  0.679806
  
Spin-orbit couplings
 Using HF (reference) density for the 2-elec mean-field SOC contribution
KET: S',Sz' (Root   1) =  0.500 0.500
BRA: S ,Sz  (Root   4) =  0.500 0.500
Clebsh-Gordan coefficient: < 0.500, 0.500; 1.000, 0.000| 0.500, 0.500> =  0.577
 Reading 1e-SO integrals
 1e Reduced matrix elements (cm-1)
<S|| Hso(L-) ||S'> =     0.0000000000    -0.0000000000
<S|| Hso(L0) ||S'> =     0.0000000000 -1823.9883323782
<S|| Hso(L+) ||S'> =     0.0000000000     0.0000000000
 1-elec SOC matrix (cm-1): < B(S,Sz) | Hso(1e) | A(S',Sz') >
                     |Sz'=-0.50>              |Sz'= 0.50>
 <Sz=-0.50|    0.000000 1053.080155i     0.000000    0.000000i
 <Sz= 0.50|   -0.000000    0.000000i     0.000000 ***********i
1-elec SOCC =  1489.280237039 cm-1
 Reading 2e-SOMF integrals
 2e-SOMF Reduced matrix elements (cm-1)
<S|| Hso(L-) ||S'> =    -0.0000000000     0.0000000000
<S|| Hso(L0) ||S'> =     0.0000000000   755.7770894670
<S|| Hso(L+) ||S'> =    -0.0000000000    -0.0000000000
 2-elec mean-field SOC matrix (cm-1): < B(S,Sz) | Hso(2e-mf) | A(S',Sz') >
                     |Sz'=-0.50>              |Sz'= 0.50>
 <Sz=-0.50|    0.000000 -436.348106i    -0.000000   -0.000000i
 <Sz= 0.50|    0.000000   -0.000000i     0.000000  436.348106i
 Total mean-field SOC matrix (cm-1): < B(S,Sz) | Hsomf | A(S',Sz') >
                     |Sz'=-0.50>              |Sz'= 0.50>
 <Sz=-0.50|    0.000000  616.732049i     0.000000    0.000000i
 <Sz= 0.50|   -0.000000    0.000000i     0.000000 -616.732049i
Mean-Field SOCC =   872.190827546 cm-1
   
**************************************************
State A: Root  1
State B: Root  5
  
Angular momentum components
< B | Lx | A > =    -0.000000000i
< B | Ly | A > =    -0.000000000i
< B | Lz | A > =     0.000000001i
  
Norm of one-particle transition density matrix
||gamma^AB||_total       =  0.959137
||gamma^AB||_symmetrized =  0.678212
||gamma^AB||_anti-symm   =  0.678212
  
Spin-orbit couplings
 Using HF (reference) density for the 2-elec mean-field SOC contribution
KET: S',Sz' (Root   1) =  0.500 0.500
BRA: S ,Sz  (Root   5) =  0.500 0.500
Clebsh-Gordan coefficient: < 0.500, 0.500; 1.000, 0.000| 0.500, 0.500> =  0.577
 Reading 1e-SO integrals
 1e Reduced matrix elements (cm-1)
<S|| Hso(L-) ||S'> =    -0.0000000000    -0.0000000000
<S|| Hso(L0) ||S'> =     0.0000000000    -0.0000007173
<S|| Hso(L+) ||S'> =    -0.0000000000     0.0000000000
 1-elec SOC matrix (cm-1): < B(S,Sz) | Hso(1e) | A(S',Sz') >
                     |Sz'=-0.50>              |Sz'= 0.50>
 <Sz=-0.50|    0.000000    0.000000i    -0.000000    0.000000i
 <Sz= 0.50|    0.000000    0.000000i     0.000000   -0.000000i
1-elec SOCC =     0.000000586 cm-1
 Reading 2e-SOMF integrals
 2e-SOMF Reduced matrix elements (cm-1)
<S|| Hso(L-) ||S'> =     0.0000000000     0.0000000000
<S|| Hso(L0) ||S'> =     0.0000000000     0.0000002702
<S|| Hso(L+) ||S'> =     0.0000000000    -0.0000000000
 2-elec mean-field SOC matrix (cm-1): < B(S,Sz) | Hso(2e-mf) | A(S',Sz') >
                     |Sz'=-0.50>              |Sz'= 0.50>
 <Sz=-0.50|    0.000000   -0.000000i     0.000000   -0.000000i
 <Sz= 0.50|   -0.000000   -0.000000i     0.000000    0.000000i
 Total mean-field SOC matrix (cm-1): < B(S,Sz) | Hsomf | A(S',Sz') >
                     |Sz'=-0.50>              |Sz'= 0.50>
 <Sz=-0.50|    0.000000    0.000000i    -0.000000    0.000000i
 <Sz= 0.50|    0.000000    0.000000i     0.000000   -0.000000i
Mean-Field SOCC =     0.000000365 cm-1
   
**************************************************
State A: Root  1
State B: Root  6
  
Angular momentum components
< B | Lx | A > =    -0.000000000i
< B | Ly | A > =    -0.000000000i
< B | Lz | A > =     0.000000000i
  
Norm of one-particle transition density matrix
||gamma^AB||_total       =  0.958528
||gamma^AB||_symmetrized =  0.677782
||gamma^AB||_anti-symm   =  0.677782
  
Spin-orbit couplings
 Using HF (reference) density for the 2-elec mean-field SOC contribution
KET: S',Sz' (Root   1) =  0.500 0.500
BRA: S ,Sz  (Root   6) =  0.500 0.500
Clebsh-Gordan coefficient: < 0.500, 0.500; 1.000, 0.000| 0.500, 0.500> =  0.577
 Reading 1e-SO integrals
 1e Reduced matrix elements (cm-1)
<S|| Hso(L-) ||S'> =    -0.0000000000     0.0000000000
<S|| Hso(L0) ||S'> =     0.0000000000    -0.0000000001
<S|| Hso(L+) ||S'> =    -0.0000000000    -0.0000000000
 1-elec SOC matrix (cm-1): < B(S,Sz) | Hso(1e) | A(S',Sz') >
                     |Sz'=-0.50>              |Sz'= 0.50>
 <Sz=-0.50|    0.000000    0.000000i    -0.000000   -0.000000i
 <Sz= 0.50|    0.000000   -0.000000i     0.000000   -0.000000i
1-elec SOCC =     0.000000000 cm-1
 Reading 2e-SOMF integrals
 2e-SOMF Reduced matrix elements (cm-1)
<S|| Hso(L-) ||S'> =     0.0000000000    -0.0000000000
<S|| Hso(L0) ||S'> =     0.0000000000     0.0000000000
<S|| Hso(L+) ||S'> =     0.0000000000     0.0000000000
 2-elec mean-field SOC matrix (cm-1): < B(S,Sz) | Hso(2e-mf) | A(S',Sz') >
                     |Sz'=-0.50>              |Sz'= 0.50>
 <Sz=-0.50|    0.000000   -0.000000i     0.000000    0.000000i
 <Sz= 0.50|   -0.000000    0.000000i     0.000000    0.000000i
 Total mean-field SOC matrix (cm-1): < B(S,Sz) | Hsomf | A(S',Sz') >
                     |Sz'=-0.50>              |Sz'= 0.50>
 <Sz=-0.50|    0.000000    0.000000i    -0.000000   -0.000000i
 <Sz= 0.50|    0.000000   -0.000000i     0.000000   -0.000000i
Mean-Field SOCC =     0.000000000 cm-1
   
[...]
   102    1.138638625766e+00
   103   -9.870334456667e-15
   104   -1.061475506820e-14
   105    5.989488651975e-02
   106   -5.327266528714e-15
   107   -1.478759893632e-15
   108   -2.054274346092e-14
   109   -1.355592693482e-14
   110    2.096754140969e-01
   111    1.635309643577e-16
   112   -6.867087777369e-15
   113    4.085655216312e-05
   114    8.031627193493e-17
   115   -2.208317475008e-15
   116    5.546913689999e-04
   117    2.601840894582e-16
   118   -4.216416973231e-16
   119   -1.580311844246e-15
   120    9.567844397182e-16
   121    5.373527012903e-16
   122   -6.069548745164e-15
   123    9.642463866687e-15
   124    9.924117979906e-14
   125    1.498684210626e-15
   126   -9.557587760092e-15
   127   -9.549049324401e-02
   128    4.120217786447e-16
   129   -7.413392178846e-16
   130   -9.159284258731e-03
   131   -8.717522969472e-16
   132   -3.707132991481e-15
   133   -2.969104566114e-02
   134   -7.314269831491e-15
   135    9.182708310328e-14
   136    8.295890487293e-01
   137    5.437360883238e-15
   138   -9.760725778753e-14
   139   -1.138638625767e+00
   140   -8.942447735431e-15
   141   -9.198625056653e-15
   142    5.989488651976e-02
   143   -5.979765689677e-15
   144    9.829489578413e-16
   145   -1.783839733996e-14
   146   -1.010634039358e-14
   147    2.096754140970e-01
   148   -6.141948422027e-15
   149    2.699883669379e-15
   150   -4.085655216393e-05
   151    2.429381771326e-16
   152    1.516506508541e-15
   153   -5.546913689995e-04
   154   -4.037546925585e-16
   155    1.446083441190e-16
   156    1.380941563910e-15
   157   -2.188970915718e-17
   158   -1.201079077933e-16
   159    8.751079115276e-17
   160    7.183416011694e-15
   161   -1.076973886105e-13
   162    4.879903525753e-15
   163    5.148224285174e-15
   164    2.606550464905e-14
   165    8.188393675221e-17
   166    1.003711978000e-15
   167    6.120923680956e-15
   168    4.002654277033e-15
   169   -3.825862520059e-16
   170   -7.893482082757e-15
   171   -5.813418276199e-14
   172   -3.945533988726e-14
   173   -1.725151504268e-13
   174    6.327402294864e-14
   175    4.572702365601e-14
   176    5.700145680778e-14
   177    1.069313122660e-14
   178    1.410664262532e-14
   179    1.181211797759e-03
   180   -4.652262856425e-15
   181    9.917925450055e-16
   182    2.780860397762e-14
   183    9.718054416856e-15
   184    3.120109500790e-02
   185   -8.139334346731e-17
   186    1.735749641412e-15
   187    1.410610902476e-15
   188   -1.696246361034e-15
   189    1.096379533609e-16
   190    7.278514872598e-16
   191    1.215376453293e-03
   192    1.611121365281e-15
   193   -2.258392570401e-17
Sym=X
Ene= 1.032618
Spin=Alpha
Occup=0
     1   -5.663745629391e-15
     2    1.463303309490e-14
     3   -5.037476381331e-14
     4   -9.489274217058e-15
     5   -4.236556467842e-13
     6    1.710934981448e-13
     7    3.861909992753e-02
     8    1.618146932684e-13
     9    4.309682288169e-16
    10   -1.057875939906e-01
    11   -4.529215223098e-13
    12   -1.376708743139e-17
    13   -3.953908758281e-02
    14   -9.111263944213e-14
    15   -9.165788937110e-15
    16    1.180616330131e-01
    17    7.238960546646e-13
    18    3.887743623514e-14
    19   -3.289807688580e-14
    20   -5.339202060552e-16
    21   -3.357666457730e-15
    22    2.179575455207e-15
    23    1.308872917527e-14
    24   -4.437756020389e-14
    25    1.030220154075e-16
    26   -3.466423762958e-15
    27    1.334420411263e-15
    28    1.446808018393e-14
    29    1.730473969285e-13
    30   -1.276290804549e-16
    31    1.161983478831e-14
    32   -1.472034066310e-14
    33   -5.177239465089e-14
    34   -2.858044883322e-13
    35    2.277446291195e-14
    36   -6.459556522424e-14
    37    1.258910112351e-13
    38    2.377359257772e-13
    39    1.855275308471e-16
    40    1.822956213904e-03
    41    3.463487611158e-15
    42    2.006641726697e-16
    43   -3.658165238715e-16
    44   -4.950557739173e-03
    45    1.372232426702e-14
    46   -1.586063015850e-02
    47   -9.183261900994e-03
    48    1.030551791837e-01
    49   -2.934548484294e-01
    50    1.621043153177e-01
    51   -8.619872234164e-02
    52    1.739849139904e-13
    53   -9.789218537533e-15
    54   -2.067443880860e-02
    55    5.640991552566e-14
    56   -4.397899627593e-15
    57    2.506017641234e-02
    58   -1.147206102562e-13
    59    1.565039363189e-14
    60    6.010813355648e-01
    61   -1.025869747850e-12
    62    4.433016570903e-14
    63   -5.922791834100e-01
    64    7.939050802811e-13
    65   -7.470958207860e-14
    66   -1.994034821361e-02
    67    1.442271761925e-15
    68   -8.394417895883e-15
    69   -9.553833444090e-03
    70   -2.084225656556e-13
    71   -8.450126588511e-02
    72   -2.775063150177e-15
    73   -7.374705457566e-14
    74   -7.001712313607e-02
    75   -8.686211933921e-13
    76    1.418948568307e-15
    77    6.181963320582e-05
    78    2.538873999922e-15
    79    1.877296509406e-15
    80    1.537826211798e-15
    81    6.046537217543e-03
    82    1.478894410486e-14
    83   -7.701300176068e-14
    84   -4.426333100619e-14
    85    5.007711070860e-13
    86   -1.427629110107e-12
    87    7.773513431503e-13
    88    5.631418477312e-02
    89   -3.001915534143e-13
    90   -3.386236261005e-15
    91    1.675238071397e-02
    92   -8.432998549004e-14
    93   -1.524268882751e-15
    94   -3.142743863424e-02
    95    1.391628705474e-13
    96    4.563613335445e-15
    97   -3.457701190828e-01
    98    1.969310008637e-12
    99    1.376269562351e-14
   100    2.980872786417e-01
   101   -1.823690952515e-12
   102    6.579128863784e-15
   103   -1.085209175081e-13
   104   -2.909477029626e-14
   105   -1.651669183453e-14
   106   -1.581374157606e-14
   107   -6.052369234166e-02
   108   -4.577891134581e-13
   109   -7.688985816915e-14
   110   -2.614481262777e-14
   111   -4.280750728144e-14
   112   -2.511294910938e-01
   113    2.343990998400e-15
   114   -1.156722771116e-03
   115    6.834806646588e-15
   116    3.756349093909e-15
   117    1.715384981457e-15
   118   -5.035647631254e-03
   119   -1.232225718881e-14
   120    6.731804706196e-14
   121    3.934716451572e-14
   122   -4.370730548532e-13
   123    1.227825208812e-12
   124   -6.408516682305e-13
   125    5.631418477313e-02
   126   -2.179009653978e-13
   127   -8.173144791308e-15
   128    1.675238071397e-02
   129   -6.360404204638e-14
   130   -4.740365919848e-15
   131   -3.142743863423e-02
   132    1.114125387447e-13
   133    1.921513440473e-14
   134   -3.457701190829e-01
   135    1.372361711142e-12
   136    2.720027787996e-14
   137    2.980872786420e-01
   138   -1.068025280180e-12
   139   -7.628665667723e-14
   140    8.093184109447e-14
   141    1.320453286567e-14
   142   -9.825493770834e-15
   143    6.621574248975e-14
   144    6.052369234169e-02
   145    3.004145734617e-13
   146    7.903281113756e-14
   147   -4.111584468437e-14
   148    1.560231778769e-13
   149    2.511294910939e-01
   150   -3.018553945734e-15
   151   -1.156722771112e-03
   152    2.348423674397e-15
   153   -3.184330915198e-15
   154    4.255840416269e-16
   155   -5.035647631250e-03
   156   -1.487038422896e-14
   157    1.586063015849e-02
   158    9.183261900986e-03
   159   -1.030551791836e-01
   160    2.934548484291e-01
   161   -1.621043153177e-01
   162   -8.619872234155e-02
   163    1.747185493354e-13
   164   -3.174039812586e-15
   165   -2.067443880859e-02
   166    5.808789359198e-14
   167   -1.330459045442e-15
   168    2.506017641233e-02
   169   -1.255263003602e-13
   170    5.407575230491e-15
   171    6.010813355641e-01
   172   -1.009826148458e-12
   173    1.111807111297e-14
   174   -5.922791834093e-01
   175    9.065721467504e-13
   176   -9.696047155710e-15
   177    1.994034821359e-02
   178   -5.623535465294e-15
   179    1.726218234244e-14
   180    9.553833444037e-03
   181    2.099534605118e-13
   182    8.450126588500e-02
   183    6.958468699356e-15
   184    9.936363430012e-14
   185    7.001712313596e-02
   186    9.407272690000e-13
   187    1.608258985674e-15
   188    6.181963319987e-05
   189   -8.906019652749e-15
   190    2.197301159801e-15
   191   -3.789790157994e-16
   192    6.046537217546e-03
   193    2.303486388522e-14
Sym=X
Ene= 1.032618
Spin=Alpha
Occup=0
     1    8.325027405783e-15
     2   -2.081445235855e-14
     3    7.473881765377e-14
     4    9.804673425841e-15
     5    5.388111681464e-13
     6   -2.230188763263e-13
     7    1.355764748851e-13
     8   -3.861909995635e-02
     9    1.187505137625e-17
    10   -3.712599279803e-13
    11    1.057875940699e-01
    12    7.623592625494e-17
    13   -1.423896302039e-13
    14    3.953908761759e-02
    15   -3.901986207280e-16
    16    5.559201074655e-13
    17   -1.180616337032e-01
    18    1.889041868236e-15
    19    4.100141663116e-14
    20   -8.687813652061e-16
    21    1.685414157700e-15
    22    6.394472485540e-14
    23    9.537255899622e-16
    24    5.639542269286e-14
    25   -9.632870437537e-16
    26    1.468187491342e-15
    27    7.178564522032e-14
    28    7.764338999502e-16
    29   -2.226087114233e-13
    30    2.935668068898e-15
    31   -3.188980304066e-15
    32   -3.098698161473e-13
    33   -2.838373914822e-15
    34    3.552078005289e-13
    35    5.889371040403e-15
    36   -1.287379333679e-14
    37    1.163256115380e-12
    38   -3.755511955830e-16
    39    1.064392981135e-14
    40    5.585608555748e-15
    41   -1.822956213503e-03
    42    5.151617405418e-15
    43    2.113464474482e-17
    44   -1.642938665267e-14
    45   -4.950557736012e-03
    46   -3.445240613056e-14
    47   -2.091577222881e-14
    48    2.229374482614e-13
    49   -5.799737431493e-13
    50   -1.397956314856e-13
    51   -2.599032609691e-13
    52   -5.631418485503e-02
    53    2.320285472568e-15
    54   -5.496942866159e-14
    55   -1.675238072791e-02
    56    6.366496088823e-16
    57    4.475062996718e-14
    58    3.142743863227e-02
    59   -5.625571990461e-16
    60    1.914441218889e-12
    61    3.457701196926e-01
    62   -1.803731052164e-14
    63   -1.801597733183e-12
    64   -2.980872792614e-01
    65    1.951752649364e-14
    66    6.267365401668e-15
    67    2.074817851622e-17
    68    7.405024667424e-16
    69    1.248490299550e-14
    70    6.052369227145e-02
    71   -5.899011381778e-14
    72    3.695927554164e-15
    73    3.458350582345e-15
    74   -8.374140367268e-14
    75    2.511294908171e-01
    76    1.487265931915e-16
    77    8.125045684636e-15
    78    1.156722773132e-03
    79   -1.735405220134e-16
    80   -2.879915539580e-16
    81    1.647441942150e-14
    82   -5.035647635642e-03
    83    1.586063017992e-02
    84    9.183261917563e-03
    85   -1.030551793214e-01
    86    2.934548487508e-01
    87   -1.621043152847e-01
    88    1.627821559514e-13
    89    8.619872230969e-02
    90   -1.789167183762e-15
    91    4.742755442399e-14
    92    2.067443881128e-02
    93   -3.339534463625e-16
    94   -8.695877696280e-14
    95   -2.506017645065e-02
    96    1.889989140464e-16
    97   -9.982900943198e-13
    98   -6.010813352067e-01
    99    1.312405214354e-14
   100    8.158926150337e-13
   101    5.922791826856e-01
   102   -1.144897212375e-14
   103    1.994034827095e-02
   104   -4.599239993822e-17
   105    1.992034525524e-16
   106   -9.553833414671e-03
   107   -1.961798336808e-13
   108    8.450126599012e-02
   109    3.631502648745e-16
   110   -2.630273681835e-15
   111   -7.001712316088e-02
   112   -7.867459340065e-13
   113    1.425168153156e-16
   114    1.088435027747e-14
   115   -6.181962798086e-05
   116   -3.358198746483e-16
   117    2.520147468738e-17
   118   -1.833719100076e-14
   119    6.046537216789e-03
   120   -1.586063017990e-02
   121   -9.183261917554e-03
   122    1.030551793213e-01
   123   -2.934548487505e-01
   124    1.621043152856e-01
   125    1.562377442453e-13
   126    8.619872230951e-02
   127   -6.484484923763e-15
   128    4.700143687034e-14
   129    2.067443881124e-02
   130   -1.090940159779e-15
   131   -8.911712741884e-14
   132   -2.506017645065e-02
   133   -9.955642515462e-16
   134   -9.408949066549e-13
   135   -6.010813352052e-01
   136    5.425413494839e-14
   137    7.445901172348e-13
   138    5.922791826839e-01
   139   -6.986363089766e-14
   140   -1.994034827101e-02
   141   -1.280984168982e-15
   142    1.939149154055e-15
   143    9.553833414553e-03
   144    1.996887375945e-13
   145   -8.450126599012e-02
   146   -4.885881867499e-15
   147    1.151836992870e-14
   148    7.001712316069e-02
   149    8.030780092294e-13
   150   -1.041644115257e-16
   151    1.113122738360e-14
   152   -6.181962794777e-05
   153   -3.547675018664e-16
   154    5.283689118508e-17
   155   -1.782117195036e-14
   156    6.046537216796e-03
   157    4.870056269292e-14
   158    2.846443367245e-14
   159   -3.159201021666e-13
   160    9.095847714481e-13
   161   -8.160938230249e-13
   162   -3.066922795897e-13
   163   -5.631418485503e-02
   164    5.011220356932e-15
   165   -7.784838361351e-14
   166   -1.675238072791e-02
   167    2.724121200466e-16
   168    1.089068411331e-13
   169    3.142743863227e-02
   170    2.116570059680e-15
   171    2.061072395375e-12
   172    3.457701196926e-01
   173   -4.448172736082e-14
   174   -2.044237622230e-12
   175   -2.980872792613e-01
   176    5.400765079743e-14
   177    1.408226430991e-13
   178   -3.001616303491e-15
   179   -9.130906285800e-16
   180    1.156624307096e-14
   181   -6.052369227146e-02
   182    5.330711187839e-13
   183   -1.247947559470e-14
   184   -4.861373035860e-15
   185    1.806251228268e-13
   186   -2.511294908171e-01
   187   -2.134191489711e-16
   188   -2.691599887870e-15
   189    1.156722773132e-03
   190   -2.687505476677e-16
   191    2.192909028416e-16
   192    2.374757486200e-14
   193   -5.035647635642e-03
Sym=X
Ene= 1.039757
Spin=Alpha
Occup=0
     1   -1.489654636566e-16
     2    2.789585884381e-16
     3   -1.235719431724e-15
     4    1.305575659883e-16
     5   -8.154259180340e-15
     6    2.719473520112e-15
     7    1.199390369646e-16
     8    1.906804028083e-15
     9   -2.780089642680e-11
    10   -3.590147170377e-16
    11   -5.320162852747e-15
    12    7.212839240127e-11
    13    3.379414821275e-16
    14   -1.595731301169e-15
    15    7.457627981651e-11
    16   -4.373028320414e-15
    17    7.169648548732e-15
    18   -7.942117181063e-10
    19   -5.042043312024e-16
    20   -8.264371083619e-15
    21   -1.097875857610e-14
    22   -3.584007908428e-15
    23   -6.609224155863e-16
    24   -8.201795819246e-16
    25   -8.814637485608e-15
    26   -1.159766762938e-14
    27   -4.219563585829e-15
    28   -9.552681915621e-16
    29    3.832702425451e-15
    30    2.051832749177e-14
    31    2.810446812675e-14
    32    1.885769500115e-14
    33    2.705214355938e-15
    34   -6.195612043340e-15
    35    5.295482306487e-14
    36    6.164481156390e-14
    37   -7.006772752868e-14
    38    9.274316459525e-15
    39   -4.708242134622e-13
    40   -7.994919836478e-17
    41    8.573546454519e-17
    42   -8.529625997352e-04
    43    2.213539483111e-16
    44   -5.180151959134e-17
    45    1.210404817523e-16
    46   -1.866145271616e-16
    47   -6.912930469404e-17
    48    1.164606872711e-15
    49   -5.494013445821e-15
    50    2.989864828531e-14
    51    5.045757649996e-16
    52    5.879491483951e-15
    53    7.336634381835e-02
    54   -3.707059392291e-16
    55    9.036767417105e-16
    56    8.980316322895e-03
    57    1.798571662782e-15
    58   -2.713674325998e-16
    59    1.381055579301e-02
    60   -1.008144054114e-14
    61   -4.467005741106e-14
    62   -6.084970779653e-01
    63    9.406127709540e-15
    64    5.017823815872e-14
    65    7.219266337960e-01
    66   -2.817154528505e-15
    67    2.828577490543e-02
    68   -8.776642659835e-15
    69    4.405459671666e-16
    70   -1.143986968749e-15
    71   -7.953605309915e-15
    72    1.504808008354e-01
    73   -5.896869054971e-14
    74   -6.029849614077e-16
    75   -6.696851251596e-15
    76    2.830185117149e-03
    77   -4.825848444497e-16
    78   -1.526557082852e-16
    79   -5.480683591302e-04
    80   -7.791737559275e-18
    81    2.614476459226e-16
    82    3.573310670252e-16
    83   -1.223619854139e-15
    84   -8.575763770843e-16
    85    7.866279718737e-15
    86   -1.989691722239e-14
    87   -1.778998030523e-14
    88   -3.056385997165e-15
    89   -6.484209258592e-15
    90   -7.336634360605e-02
    91    2.607862092142e-16
    92   -1.125769345106e-15
    93   -8.980316297240e-03
    94   -2.306300897587e-15
    95    5.657799573600e-16
    96   -1.381055575054e-02
    97    2.890986914960e-14
    98    5.040121065898e-14
    99    6.084970762321e-01
   100   -4.013608487971e-14
   101   -5.074109645815e-14
   102   -7.219266317596e-01
   103    5.341530749486e-16
   104    4.482596381916e-15
   105   -2.828577485303e-02
   106    2.564828062360e-15
   107   -2.332206514857e-15
   108   -2.085457801232e-15
   109    2.292089357472e-14
   110   -1.504808006959e-01
   111    7.446494891377e-15
   112   -9.416922227196e-15
   113   -2.830185115355e-03
   114   -2.202574708106e-16
   115    4.798559462833e-16
   116   -5.480683449810e-04
   117    1.331669743678e-16
   118    3.556200569746e-16
   119   -1.715350765034e-17
   120    9.516188821647e-16
   121    5.721505482319e-16
   122   -5.935989266522e-15
   123    1.690200078272e-14
   124   -3.387537328550e-14
   125    3.839219418840e-15
   126   -8.913650682510e-16
   127   -7.336634360602e-02
   128    4.743340670812e-17
   129   -1.604124633106e-16
   130   -8.980316297234e-03
   131    2.503251954736e-15
   132    1.203602429300e-15
   133   -1.381055575054e-02
   134   -3.576456448106e-14
   135   -1.566208903451e-15
   136    6.084970762319e-01
   137    4.687997644170e-14
   138    1.023340255097e-14
   139   -7.219266317593e-01
   140    4.147462754533e-15
   141   -6.271434560390e-15
   142    2.828577485300e-02
   143    1.507499510419e-15
   144   -1.648165456742e-15
   145    1.036918441516e-14
   146   -3.529239131054e-14
   147    1.504808006958e-01
   148   -2.270348738598e-15
   149   -4.939414623184e-15
   150   -2.830185115356e-03
   151    8.852973923253e-18
   152   -6.316837987293e-16
   153   -5.480683449815e-04
   154   -1.004043295642e-16
   155   -1.208029821804e-16
   156   -5.369878854199e-16
   157   -2.607207346808e-17
   158   -2.624011530601e-17
   159    1.643966093746e-16
   160   -1.539671141567e-15
   161    2.449637095158e-14
   162   -1.975140759280e-15
   163    3.115327605828e-15
   164    7.336634381837e-02
   165   -2.224829205043e-16
   166    1.300945560499e-15
   167    8.980316322898e-03
   168   -3.838325462314e-16
   169   -3.323524380349e-15
   170    1.381055579301e-02
   171    1.873457725219e-14
   172   -1.435891426077e-14
   173   -6.084970779655e-01
   174   -2.225355215258e-14
   175    9.502868396263e-15
   176    7.219266337963e-01
   177   -3.246256473934e-15
   178   -2.828577490545e-02
   179    7.830446364121e-15
   180    2.065639181384e-15
   181    4.195922610787e-15
   182   -5.887816251060e-15
   183   -1.504808008355e-01
   184    4.774291177156e-14
   185    2.156534505606e-15
   186    1.821284280835e-14
   187    2.830185117147e-03
   188    1.730415376229e-16
   189   -1.109125836714e-16
   190   -5.480683591300e-04
   191   -5.033991057040e-17
   192   -3.942869023020e-16
   193    5.209171183758e-17
[5D7F]

======= END OF MOLDEN-FORMATTED INPUT FILE =======


        *************************************************************
        *                                                           *
        *  Thank you very much for using Q-Chem.  Have a nice day.  *
        *                                                           *
        *************************************************************


