                  Welcome to Q-Chem
     A Quantum Leap Into The Future Of Chemistry


 Q-Chem 6.0 (devel), Q-Chem, Inc., Pleasanton, CA (2022)

 E. Epifanovsky,  A. T. B. Gilbert,  Xintian Feng,  Joonho Lee,  Yuezhi Mao,  
 N. Mardirossian,  P. Pokhilko,  A. White,  M. Wormit,  M. P. Coons,  
 A. L. Dempwolff,  Zhengting Gan,  D. Hait,  P. R. Horn,  L. D. Jacobson,  
 I. Kaliman,  J. Kussmann,  A. W. Lange,  Ka Un Lao,  D. S. Levine,  Jie Liu,  
 S. C. McKenzie,  A. F. Morrison,  K. Nanda,  F. Plasser,  D. R. Rehn,  
 M. L. Vidal,  Zhi-Qiang You,  Ying Zhu,  B. Alam,  B. Albrecht,  
 A. Aldossary,  E. Alguire,  J. H. Andersen,  V. Athavale,  D. Barton,  
 K. Begam,  A. Behn,  N. Bellonzi,  Y. A. Bernard,  E. J. Berquist,  
 H. Burton,  A. Carreras,  K. Carter-Fenk,  Romit Chakraborty,  
 Chandrima Chakravarty,  Junhan Chen,  A. D. Chien,  K. D. Closser,  
 V. Cofer-Shabica,  L. Cunha,  S. Dasgupta,  Jia Deng,  M. de Wergifosse,  
 M. Diedenhofen,  Hainam Do,  S. Ehlert,  Po-Tung Fang,  S. Fatehi,  
 Qingguo Feng,  T. Friedhoff,  B. Ganoe,  J. Gayvert,  Qinghui Ge,  
 G. Gidofalvi,  M. Goldey,  J. Gomes,  C. Gonzalez-Espinoza,  S. Gulania,  
 A. Gunina,  J. A. Gyamfi,  M. W. D. Hanson-Heine,  P. H. P. Harbach,  
 A. W. Hauser,  M. F. Herbst,  M. Hernandez Vera,  M. Hodecker,  
 Z. C. Holden,  S. Houck,  Xunkun Huang,  Kerwin Hui,  B. C. Huynh,  
 K. Ikeda,  M. Ivanov,  Hyunjun Ji,  Zuxin Jin,  Hanjie Jiang,  B. Kaduk,  
 S. Kaehler,  R. Kang,  K. Khistyaev,  Jaehoon Kim,  Yongbin Kim,  
 P. Klunzinger,  Z. Koczor-Benda,  Joong Hoon Koh,  D. Kosenkov,  
 Saikiran Kotaru,  L. Koulias,  T. Kowalczyk,  C. M. Krauter,  K. Kue,  
 A. Kunitsa,  T. Kus,  A. Landau,  K. V. Lawler,  D. Lefrancois,  S. Lehtola,  
 Rain Li,  Shaozhi Li,  Yi-Pei Li,  Jiashu Liang,  M. Liebenthal,  
 Hung-Hsuan Lin,  You-Sheng Lin,  Fenglai Liu,  Kuan-Yu Liu,  
 M. Loipersberger,  A. Luenser,  C. Malbon,  A. Manjanath,  P. Manohar,  
 E. Mansoor,  S. F. Manzer,  Shan-Ping Mao,  A. V. Marenich,  T. Markovich,  
 S. Mason,  F. Matz,  S. A. Maurer,  P. F. McLaughlin,  M. F. S. J. Menger,  
 J.-M. Mewes,  S. A. Mewes,  P. Morgante,  Mohammad Mostafanejad,  
 J. W. Mullinax,  K. J. Oosterbaan,  G. Paran,  V. Parravicini,  
 Alexander C. Paul,  Suranjan K. Paul,  F. Pavosevic,  Zheng Pei,  S. Prager,  
 E. I. Proynov,  E. Ramos,  B. Rana,  A. E. Rask,  A. Rettig,  R. M. Richard,  
 F. Rob,  E. Rossomme,  T. Scheele,  M. Scheurer,  M. Schneider,  
 P. E. Schneider,  N. Sergueev,  S. M. Sharada,  Hengyuan Shen,  
 W. Skomorowski,  D. W. Small,  C. J. Stein,  Yingli Su,  Yu-Chuan Su,  
 E. J. Sundstrom,  Zhen Tao,  J. Thirman,  Hung-Yi Tsai,  T. Tsuchimochi,  
 N. M. Tubman,  C. Utku,  S. P. Veccham,  O. Vydrov,  J. Wenzel,  
 Jonathan Wong,  J. Witte,  A. Yamada,  Chou-Hsun Yang,  Kun Yao,  
 S. Yeganeh,  S. R. Yost,  A. Zech,  F. Zeller,  Igor Ying Zhang,  
 Xing Zhang,  Yu Zhang,  D. Zuev,  A. Aspuru-Guzik,  A. T. Bell,  
 N. A. Besley,  K. B. Bravaya,  B. R. Brooks,  D. Casanova,  Jeng-Da Chai,  
 Hsing-Ta Chen,  S. Coriani,  C. J. Cramer,  A. E. DePrince, III,  
 R. A. DiStasio Jr.,  A. Dreuw,  B. D. Dunietz,  T. R. Furlani,  
 W. A. Goddard III,  S. Grimme,  S. Hammes-Schiffer,  T. Head-Gordon,  
 W. J. Hehre,  Chao-Ping Hsu,  T.-C. Jagau,  Yousung Jung,  A. Klamt,  
 Jing Kong,  D. S. Lambrecht,  Xiangyuan Li,  WanZhen Liang,  N. J. Mayhall,  
 C. W. McCurdy,  J. B. Neaton,  T. Neudecker,  C. Ochsenfeld,  
 J. A. Parkhill,  R. Peverati,  V. A. Rassolov,  Haisheng Ren,  Yihan Shao,  
 L. V. Slipchenko,  R. P. Steele,  J. E. Subotnik,  A. J. W. Thom,  
 A. Tkatchenko,  D. G. Truhlar,  T. Van Voorhis,  Fan Wang,  
 T. A. Wesolowski,  K. B. Whaley,  H. L. Woodcock III,  P. M. Zimmerman,  
 S. Faraji,  P. M. W. Gill,  M. Head-Gordon,  J. M. Herbert,  A. I. Krylov

 Contributors to earlier versions of Q-Chem not listed above: 
 R. D. Adamson,  B. Austin,  R. Baer,  J. Baker,  G. J. O. Beran,  
 K. Brandhorst,  S. T. Brown,  E. F. C. Byrd,  Arup K. Chakraborty,  
 G. K. L. Chan,  Chun-Min Chang,  Yunqing Chen,  C.-L. Cheng,  
 Siu Hung Chien,  D. M. Chipman,  D. L. Crittenden,  H. Dachsel,  
 R. J. Doerksen,  A. D. Dutoi,  R. G. Edgar,  J. Fosso-Tande,  
 L. Fusti-Molnar,  D. Ghosh,  A. Ghysels,  A. Golubeva-Zadorozhnaya,  
 J. Gonthier,  M. S. Gordon,  S. R. Gwaltney,  G. Hawkins,  J. E. Herr,  
 A. Heyden,  S. Hirata,  E. G. Hohenstein,  G. Kedziora,  F. J. Keil,  
 C. Kelley,  Jihan Kim,  R. A. King,  R. Z. Khaliullin,  P. P. Korambath,  
 W. Kurlancheek,  A. Laurent,  A. M. Lee,  M. S. Lee,  S. V. Levchenko,  
 Ching Yeh Lin,  D. Liotard,  E. Livshits,  R. C. Lochan,  I. Lotan,  
 L. A. Martinez-Martinez,  P. E. Maslen,  N. Nair,  D. P. O'Neill,  
 D. Neuhauser,  E. Neuscamman,  C. M. Oana,  R. Olivares-Amaya,  R. Olson,  
 T. M. Perrine,  B. Peters,  P. A. Pieniazek,  A. Prociuk,  Y. M. Rhee,  
 J. Ritchie,  M. A. Rohrdanz,  E. Rosta,  N. J. Russ,  H. F. Schaefer III,  
 M. W. Schmidt,  N. E. Schultz,  S. Sharma,  N. Shenvi,  C. D. Sherrill,  
 A. C. Simmonett,  A. Sodt,  T. Stein,  D. Stuck,  K. S. Thanthiriwatte,  
 V. Vanovschi,  L. Vogt,  Tao Wang,  A. Warshel,  M. A. Watson,  
 C. F. Williams,  Q. Wu,  X. Xu,  Jun Yang,  W. Zhang,  Yan Zhao

   Please cite Q-Chem as follows:
  "Software for the frontiers of quantum chemistry:
   An overview of developments in the Q-Chem 5 package"
   J. Chem. Phys. 155, 084801 (2021)
   https://doi.org/10.1063/5.0055522 (open access)

 Q-Chem 6.0.1 for Intel X86 EM64T Linux

 Parts of Q-Chem use Armadillo 9.900.5 (Nocturnal Misbehaviour).
 http://arma.sourceforge.net/

 Q-Chem begins on Sat Jan 14 00:04:55 2023  

 Host: atlas-141
0

     Scratch files written to ./qchem56476//
 Processing $rem in /scratch/abel/SOFTWARE/qchem/config/preferences:
 Processing $rem in /dipc/acebg/.qchemrc:

 Checking the input file for inconsistencies... 	...done.

--------------------------------------------------------------
User input:
--------------------------------------------------------------
$comment
 RAS-SF CALCULATION
$end

$molecule
 READ co2.molecule
$end

$rem
!**CALCULATION TYPE***     
JOBTYPE            sp    
EXCHANGE           HF
CORRELATION        RASCI    !RASCI=Casanova; RASCI2=Zimmerman
BASIS              GEN
PURECART           11

!***SCF REFERENCE***
SKIP_SCFMAN        FALSE
UNRESTRICTED       FALSE
!SCF_GUESS          core
!SCF_GUESS_MIX      FALSE
!SCF_GUESS_ALWAYS   FALSE
MAX_SCF_CYCLES     500
SCF_CONVERGENCE    8
!SCF_ALGORITHM      DIIS !DIIS,DM,DIIS_DM,GDM,DIIS_GDM,GD

SYMMETRY           TRUE !use of symmetry for calculating integrals
SYM_IGNORE         FALSE !turn off using symmetry
SYM_TOL            5 !tolerance for determining point group

!THRESH             14
SCF_FINAL_PRINT     1 !0,1,2,3

!****RAS-SF****
RAS_ROOTS          10       !number of RAS-CI roots to be computed
SET_ITER           100     !number of iterations in RASCI
RAS_ELEC           11       !number of electrons in RAS2
!RAS_ELEC_ALPHA            !spin-α electrons in RAS2 
!RAS_ELEC_BETA             !spin-β electrons in RAS2

RAS_ACT            9       !number of orbitals in RAS2 
RAS_ACT_ORB   [7,8,9,10,11,12,13,14,15]  !user-selected RAS2 orbitals
RAS_OCC            6       !number of orbitals in RAS1
N_FROZEN_CORE      0     !Number of frozen core orbitals
N_FROZEN_VIRTUAL   0      !Number of frozen virtual orbitals
RAS_NATORB         TRUE    !computation of the natural orbital occupancies
!RAS_NATORB_STATE  0      !Saves NO of i RAS computed state in .fchk ﬁle

RAS_DO_HOLE        TRUE   !presence of hole excitations in RAS-CI wave function
RAS_DO_PART        TRUE   !presence of particle excitations
RAS_AMPL_PRINT     10     !threshold (×10 2 ) for the CI amplitudes

RAS_GUESS_CS       0      !number of closed shell guess conﬁgurations
RAS_SPIN_MULT      0      !spin multiplicity: 0=any, 2n+1=defined 
RAS_SRDFT          FALSE  !short-range density functional RAS-CI
RAS_NFRAG          0     !fragments of excitation analysis in RASCI

RAS_PRINT          2      !level of information
RAS_NATORB         TRUE   !computation of the natural orbital occupancies
!RAS_NATORB_STATE  0      !Saves NO of i RAS computed state in .fchk ﬁle
RAS_FOD            TRUE

!****RAS-SOC****
CALC_SOC           TRUE   !calculate SOC for EOM-CC, RAS-CI, ADC, TDDFT/TDA and TDDFT
!RAS_SOC_2E        TRUE   !two-electron mean-ﬁeld contribution, default=true
RAS_SOC_SYM_DENS   TRUE   !averaging of α and β densities

!****MEMORY****
MEM_TOTAL          60000 !Default 2000 MB
MEM_STATIC         16000  !Default 64 MB

!**Molecular Properties and Analysis **                                                                                          
GUI                2
STATE_ANALYSIS     TRUE
MOLDEN_FORMAT      TRUE
PRINT_ORBITALS     20
$end                                           

$basis
C     0
S   12   1.00
  15566.69000000             0.0029830996
   2405.49600000            -0.0555409287
    525.67290000             0.2832293329
    146.49690000            -2.5507612979
     47.97475000             3.8719066611
     17.33014000            -3.3490194312
      6.58396100             2.2684566062
      2.53985700            -1.3584238377
      0.96973270             0.7472656780
      0.35953110            -0.3763809279
      0.12744200             0.1658910132
      0.04517401            -0.0493832245
S   12   1.00
  15566.69000000             0.0003189872
   2405.49600000             0.0019590813
    525.67290000             0.0102385738
    146.49690000             0.0405238695
     47.97475000             0.1258839645
     17.33014000             0.2933115901
      6.58396100             0.4369257167
      2.53985700             0.2362314237
      0.96973270             0.0079326342
      0.35953110             0.0034392481
      0.12744200            -0.0020754636
      0.04517401             0.0005419770
S   12   1.00
  15566.69000000            -0.0013537751
   2405.49600000             0.0048443423
    525.67290000            -0.0865727882
    146.49690000             0.2210312830
     47.97475000            -2.6450196579
     17.33014000             5.1422030636
      6.58396100            -5.2629735839
      2.53985700             3.7994306907
      0.96973270            -2.2578262109
      0.35953110             1.1977619243
      0.12744200            -0.5667658328
      0.04517401             0.1853802882
S   12   1.00
  15566.69000000             0.0005393136
   2405.49600000             0.0036810445
    525.67290000             0.0175956637
    146.49690000             0.1066433869
     47.97475000             0.4947740092
     17.33014000             1.4076213523
      6.58396100            -3.9011476082
      2.53985700             3.8126250619
      0.96973270            -2.4346880801
      0.35953110             1.2481608613
      0.12744200            -0.5355493212
      0.04517401             0.1529241246
S   12   1.00
  15566.69000000            -0.0000707180
   2405.49600000            -0.0004342985
    525.67290000            -0.0022847848
    146.49690000            -0.0091545899
     47.97475000            -0.0297361058
     17.33014000            -0.0760753928
      6.58396100            -0.1509354847
      2.53985700            -0.1515213903
      0.96973270             0.1868849319
      0.35953110             0.6646021627
      0.12744200             0.3158364657
      0.04517401            -0.0073833364
S   12   1.00
  15566.69000000             0.0000795849
   2405.49600000             0.0004976366
    525.67290000             0.0025477780
    146.49690000             0.0106702450
     47.97475000             0.0332187925
     17.33014000             0.0938422339
      6.58396100             0.1764788245
      2.53985700             0.2487758240
      0.96973270            -0.8567188161
      0.35953110            -0.6798843111
      0.12744200             1.2410693115
      0.04517401             0.1104252684
S   12   1.00
  15566.69000000            -0.0001253226
   2405.49600000            -0.0007232738
    525.67290000            -0.0042118382
    146.49690000            -0.0149456620
     47.97475000            -0.0613103592
     17.33014000            -0.1298691150
      6.58396100            -0.4059601178
      2.53985700             0.0098309945
      0.96973270             2.2413945003
      0.35953110            -2.7044613328
      0.12744200             0.8005518469
      0.04517401             0.5018633017
S   12   1.00
  15566.69000000            -0.0001399795
   2405.49600000            -0.0005350718
    525.67290000            -0.0055476676
    146.49690000            -0.0062152505
     47.97475000            -0.0857610466
     17.33014000            -0.0030187866
      6.58396100            -1.4997072573
      2.53985700             4.1452896445
      0.96973270            -5.3057941773
      0.35953110             4.8101634133
      0.12744200            -3.5329817112
      0.04517401             1.6215288265
S   12   1.00
  15566.69000000             0.0001768338
   2405.49600000             0.0005827390
    525.67290000             0.0073251488
    146.49690000             0.0064009737
     47.97475000             0.1378168872
     17.33014000            -0.0225325773
      6.58396100             1.1948467506
      2.53985700            -2.5576543833
      0.96973270             1.4897084978
      0.35953110             0.8163696556
      0.12744200            -2.2720516293
      0.04517401             1.6298706381
P   7   1.00
     34.79377000             1.2529687698
      7.96239500            -1.0164370103
      2.37594400             0.6581697610
      0.81293870            -0.4042525382
      0.28812230             0.2268395080
      0.10029750            -0.1125535483
      0.03491430             0.0401224812
P   7   1.00
     34.79377000            -0.0303543636
      7.96239500             1.4423590009
      2.37594400            -1.9622154431
      0.81293870             1.6988670418
      0.28812230            -1.1658461727
      0.10029750             0.6578324101
      0.03491430            -0.2493353954
P   7   1.00
     34.79377000             0.0055910270
      7.96239500             0.0375157776
      2.37594400             0.1480134382
      0.81293870             0.3688832987
      0.28812230             0.4813700216
      0.10029750             0.1940050552
      0.03491430            -0.0141156477
P   7   1.00
     34.79377000            -0.0067973219
      7.96239500            -0.0437073439
      2.37594400            -0.2013324537
      0.81293870            -0.5748167603
      0.28812230             0.1062910032
      0.10029750             0.7901776396
      0.03491430             0.0842390253
P   7   1.00
     34.79377000             0.0157945446
      7.96239500             0.0790559622
      2.37594400             0.5950796320
      0.81293870             0.2205642327
      0.28812230            -1.1629492997
      0.10029750             0.5660062719
      0.03491430             0.4300019258
P   7   1.00
     34.79377000            -0.0210425872
      7.96239500            -0.2071634906
      2.37594400            -0.8934591594
      0.81293870             1.3239321517
      0.28812230            -0.4725535806
      0.10029750            -0.6658084551
      0.03491430             0.9389643079
P   7   1.00
     34.79377000             0.0047012583
      7.96239500             0.2926494427
      2.37594400             0.4993348323
      0.81293870            -1.6236567537
      0.28812230             2.2439312954
      0.10029750            -2.1570223382
      0.03491430             1.2687220997
D   3   1.00
      1.03157817             0.3976666407
      0.46411596             0.4340023798
      0.18218655             0.3318497793
D   3   1.00
      1.03157817            -1.0154168165
      0.46411596             0.3266204131
      0.18218655             0.6996104129
D   3   1.00
      1.03157817             1.3631378307
      0.46411596            -2.2328714566
      0.18218655             1.3595340559
F   2   1.00
      0.75441471             0.7812501773
      0.31034620             0.2967175540
F   2   1.00
      0.75441471            -1.0598965558
      0.31034620             1.2828449797
****
O     0
S   13   1.00
  60090.63000000            -0.0195413375
   9178.64300000             0.1124388889
   1956.07500000            -0.5155668651
    532.33530000             2.7727641684
    172.04650000            -3.7858732346
     62.28191000             3.1656075066
     24.11402000            -2.2039064781
      9.63524800             1.4086720095
      3.86729700            -0.8396476481
      1.52812000             0.4642702812
      0.58555830            -0.2345298949
      0.21504120             0.1027830301
      0.07897200            -0.0299675444
S   13   1.00
  60090.63000000             0.0001692081
   9178.64300000             0.0008891879
   1956.07500000             0.0044485389
    532.33530000             0.0179738557
    172.04650000             0.0600476428
     62.28191000             0.1620707499
     24.11402000             0.3339289709
      9.63524800             0.4092140945
      3.86729700             0.1618795818
      1.52812000             0.0022027536
      0.58555830             0.0034704047
      0.21504120            -0.0012142930
      0.07897200             0.0005534896
S   13   1.00
  60090.63000000             0.0016824261
   9178.64300000            -0.0102558308
   1956.07500000             0.1095002733
    532.33530000            -0.4488321249
    172.04650000             3.1385355360
     62.28191000            -5.2563693877
     24.11402000             4.9314159993
      9.63524800            -3.4506227726
      3.86729700             2.0654871108
      1.52812000            -1.1249012317
      0.58555830             0.5615527166
      0.21504120            -0.2446043966
      0.07897200             0.0711325634
S   13   1.00
  60090.63000000            -0.0002065020
   9178.64300000            -0.0035641933
   1956.07500000             0.0029640655
    532.33530000            -0.1218194024
    172.04650000             0.0735099054
     62.28191000            -2.7197744822
     24.11402000             5.2215840139
      9.63524800            -4.8348223157
      3.86729700             3.1687265830
      1.52812000            -1.7533842622
      0.58555830             0.8740236986
      0.21504120            -0.3802947001
      0.07897200             0.1105304790
S   13   1.00
  60090.63000000             0.0002419867
   9178.64300000             0.0000566806
   1956.07500000             0.0108054863
    532.33530000            -0.0172571578
    172.04650000             0.2416080740
     62.28191000            -0.3596654472
     24.11402000             3.0148695731
      9.63524800            -6.0524851282
      3.86729700             5.9236855025
      1.52812000            -3.9750352666
      0.58555830             2.1515882879
      0.21504120            -0.9647815655
      0.07897200             0.2822880591
S   13   1.00
  60090.63000000            -0.0000395897
   9178.64300000            -0.0002084833
   1956.07500000            -0.0010430918
    532.33530000            -0.0042636830
    172.04650000            -0.0144962724
     62.28191000            -0.0416420553
     24.11402000            -0.0970746371
      9.63524800            -0.1700226740
      3.86729700            -0.1020310048
      1.52812000             0.2917777597
      0.58555830             0.6302910866
      0.21504120             0.2386680568
      0.07897200             0.0075406479
S   13   1.00
  60090.63000000            -0.0000773803
   9178.64300000            -0.0005818941
   1956.07500000            -0.0014078771
    532.33530000            -0.0149554973
    172.04650000            -0.0096707840
     62.28191000            -0.2062919652
     24.11402000             0.0042110667
      9.63524800            -1.6043085938
      3.86729700             4.9112426184
      1.52812000            -6.1877669361
      0.58555830             4.9226183362
      0.21504120            -2.7759393511
      0.07897200             0.8984356654
S   13   1.00
  60090.63000000            -0.0000493138
   9178.64300000            -0.0002616399
   1956.07500000            -0.0012940482
    532.33530000            -0.0053976104
    172.04650000            -0.0180551425
     62.28191000            -0.0546545545
     24.11402000            -0.1253836904
      9.63524800            -0.2655132982
      3.86729700            -0.0863057573
      1.52812000             1.3025724632
      0.58555830             0.1258597737
      0.21504120            -2.0057236989
      0.07897200             1.1372529664
S   13   1.00
  60090.63000000             0.0000652206
   9178.64300000             0.0003851097
   1956.07500000             0.0015725997
    532.33530000             0.0086283101
    172.04650000             0.0199439496
     62.28191000             0.1017080665
     24.11402000             0.1231693298
      9.63524800             0.6571302334
      3.86729700            -1.0140167663
      1.52812000            -1.4456106903
      0.58555830             3.7310933587
      0.21504120            -3.3439638439
      0.07897200             1.2929116266
S   13   1.00
  60090.63000000             0.0000125071
   9178.64300000             0.0000635004
   1956.07500000             0.0003382904
    532.33530000             0.0012608655
    172.04650000             0.0048739193
     62.28191000             0.0117999479
     24.11402000             0.0350558932
      9.63524800             0.0431547110
      3.86729700             0.0686575271
      1.52812000            -0.2069936760
      0.58555830            -0.0765718142
      0.21504120            -0.8292339701
      0.07897200             1.5687412119
P   8   1.00
    113.11180000            -1.2710682785
     26.41491000             1.0910020651
      8.17643800            -0.7705377467
      2.92841600             0.5099230624
      1.10453300            -0.3033330829
      0.41297850             0.1584074733
      0.14779610            -0.0717784623
      0.05289305             0.0231677216
P   8   1.00
    113.11180000             0.0254977556
     26.41491000            -1.5479139269
      8.17643800             1.8898556729
      2.92841600            -1.4464555291
      1.10453300             0.8870093109
      0.41297850            -0.4705523458
      0.14779610             0.2218889459
      0.05289305            -0.0770360461
P   8   1.00
    113.11180000             0.0025494846
     26.41491000             0.0190898373
      8.17643800             0.0827611559
      2.92841600             0.2348713494
      1.10453300             0.4160688706
      0.41297850             0.3827214973
      0.14779610             0.1043982782
      0.05289305            -0.0015088188
P   8   1.00
    113.11180000            -0.0026630700
     26.41491000            -0.0212035935
      8.17643800            -0.0872809032
      2.92841600            -0.3241830901
      1.10453300            -0.4488528421
      0.41297850             0.3930914267
      0.14779610             0.6675097555
      0.05289305             0.0238835115
P   8   1.00
    113.11180000            -0.0238049270
     26.41491000            -0.0185497260
      8.17643800            -1.4523692173
      2.92841600             2.6627270901
      1.10453300            -2.7548641088
      0.41297850             2.1599393727
      0.14779610            -1.4222072851
      0.05289305             0.6547424457
P   8   1.00
    113.11180000             0.0053232057
     26.41491000             0.0462694043
      8.17643800             0.2064478125
      2.92841600             0.7461414937
      1.10453300            -0.4557194537
      0.41297850            -0.8913484286
      0.14779610             0.9101315452
      0.05289305             0.0976906024
P   8   1.00
    113.11180000            -0.0112898559
     26.41491000            -0.0560743425
      8.17643800            -0.5679396015
      2.92841600            -0.3559825914
      1.10453300             1.7438247134
      0.41297850            -1.7932938169
      0.14779610             0.6661116827
      0.05289305             0.2973418495
P   8   1.00
    113.11180000             0.0095798026
     26.41491000             0.0116605639
      8.17643800             0.5564970289
      2.92841600            -0.5894713168
      1.10453300            -0.1801383049
      0.41297850             1.2013211517
      0.14779610            -1.9369305772
      0.05289305             1.5589788649
D   4   1.00
      2.91881374             0.2189008976
      1.47086227             0.3084606274
      0.67466607             0.4968855570
      0.27128932             0.1543978747
D   4   1.00
      2.91881374            -0.5840117450
      1.47086227            -0.3749425939
      0.67466607             0.4232434086
      0.27128932             0.5661997036
D   4   1.00
      2.91881374            -1.9148526647
      1.47086227             3.4686455436
      0.67466607            -2.7388636396
      0.27128932             1.1211849019
D   4   1.00
      2.91881374             1.0008481630
      1.47086227            -0.4995933023
      0.67466607            -1.0328708731
      0.27128932             1.1470255900
F   3   1.00
      2.21897757             0.4559426055
      1.07062169             0.4472676941
      0.43980442             0.2648932271
F   3   1.00
      2.21897757            -0.9647857915
      1.07062169             0.3751836722
      0.43980442             0.6946471172
F   3   1.00
      2.21897757             1.2881000474
      1.07062169            -2.0410903807
      0.43980442             1.2613220749
****
$end

--------------------------------------------------------------
 ----------------------------------------------------------------
             Standard Nuclear Orientation (Angstroms)
    I     Atom           X                Y                Z
 ----------------------------------------------------------------
    1      C      -0.0000000000     0.0000000000     0.3242786145
    2      O      -1.1495552469    -0.0000000000    -0.1216044804
    3      O       1.1495552469     0.0000000000    -0.1216044804
 ----------------------------------------------------------------
 Molecular Point Group                 C2v   NOp =  4
 Largest Abelian Subgroup              C2v   NOp =  4
 Nuclear Repulsion Energy =          55.93177340 hartrees
 There are       12 alpha and       11 beta electrons
 Requested basis set is non-standard
 There are 71 shells and 209 basis functions

 Q-Chem warning in module libmdc/get_mega.C, line 167:

 Allowed MEM_STATIC has been capped at MEM_STATIC=8191.
 Reduce the value of MEM_STATIC to silence this warning.


 Total QAlloc Memory Limit  60000 MB
 Mega-Array Size      8007 MB
 MEM_STATIC part      8191 MB


                       Distance Matrix (Angstroms)
             C (  1)   O (  2)
   O (  2)  1.233000
   O (  3)  1.233000  2.299110
 
 A cutoff of  1.0D-12 yielded   2556 shell pairs
 There are     22292 function pairs (     30484 Cartesian)
 Smallest overlap matrix eigenvalue = 3.84E-05

 Scale SEOQF with 1.000000e-01/1.000000e-01/1.000000e-01

 Standard Electronic Orientation quadrupole field applied
 Nucleus-field energy     =     0.0000000007 hartrees
 ================ Generating on-the-fly SAD Guess ================
 Attempting to make child job directory: ./qchem56476//Frg1/
 Attempting to make child job directory: ./qchem56476//Frg2/
 Creating input file ./qchem56476/Frg1.input
 using default PutDataFrgm: nothing
 calling putenv with: QCSCRATCH=./qchem56476/ 
 Spawning Job For Fragment 0
 Done Job For Fragment 0
 calling putenv with: QCSCRATCH=. 
 calling putenv with: QCTHREADS=1 
 Creating input file ./qchem56476/Frg2.input
 using default PutDataFrgm: nothing
 calling putenv with: QCSCRATCH=./qchem56476/ 
 Spawning Job For Fragment 1
 Done Job For Fragment 1
 calling putenv with: QCSCRATCH=. 
 calling putenv with: QCTHREADS=1 
 Time for running child jobs:  CPU 0.02 s  wall 1436.78 s
 ============= Method Specific SAD Guess Constructed =============
 Guess from on-the-fly superposition of atomic densities
 Warning: Energy on first SCF cycle will be non-variational

 -----------------------------------------------------------------------
  General SCF calculation program by
  Eric Jon Sundstrom, Paul Horn, Yuezhi Mao, Dmitri Zuev, Alec White,
  David Stuck, Shaama M.S., Shane Yost, Joonho Lee, David Small,
  Daniel Levine, Susi Lehtola, Hugh Burton, Evgeny Epifanovsky,
  Bang C. Huynh
 -----------------------------------------------------------------------
 Hartree-Fock
 Orthonormalizing orbitals
 A restricted open-shell SCF calculation will be
 performed using GDM
 SCF converges when RMS gradient is below 1.0e-08
 ---------------------------------------
  Cycle       Energy        RMS Gradient
 ---------------------------------------
    1    -186.8648247051      4.53e-01   Descent step
    2    -187.2794205344      2.24e-01   Descent step
    3    -187.5198545771      1.27e-01   Descent step
    4    -187.6334588287      6.48e-02   Normal BFGS step
    5    -187.6628694623      1.49e-02   Normal BFGS step
    6    -187.6638634775      1.03e-02   Normal BFGS step
    7    -187.6640018300      2.03e-03   Normal BFGS step
    8    -187.6640116514      5.00e-04   Normal BFGS step
    9    -187.6640134124      2.12e-04   Normal BFGS step
   10    -187.6640136497      6.57e-05   Normal BFGS step
   11    -187.6640136874      1.90e-05   Normal BFGS step
   12    -187.6640136877      7.34e-06   Normal BFGS step
   13    -187.6640136908      2.70e-06   Normal BFGS step
  GDM::WARNING energy changes are now smaller than effective accuracy.
  GDM::        calculation will continue, but THRESH should be increased
  GDM::        or SCF_CONVERGENCE decreased. 
  GDM::        effective_thresh = 5.82e-09
   14    -187.6640136865      3.62e-07   Normal BFGS step
   15    -187.6640136936      1.95e-07   Normal BFGS step
   16    -187.6640136811      5.36e-08  Line search: overstep
  GDM::WARNING energy changes are now smaller than effective accuracy.
  GDM::        calculation will continue, but THRESH should be increased
  GDM::        or SCF_CONVERGENCE decreased. 
  GDM::        effective_thresh = 5.82e-09
   17    -187.6640136923      1.76e-07   Normal BFGS step
   18    -187.6640136988      4.28e-08   Normal BFGS step
   19    -187.6640136781      4.53e-08  Line search: overstep
  GDM::WARNING energy changes are now smaller than effective accuracy.
  GDM::        calculation will continue, but THRESH should be increased
  GDM::        or SCF_CONVERGENCE decreased. 
  GDM::        effective_thresh = 5.82e-09
   20    -187.6640136967      3.47e-08   Normal BFGS step
   21    -187.6640136959      2.73e-09  Convergence criterion met
The disked orbital energies are calculated using alpha and beta Focks
 ---------------------------------------
 Alpha HF Exchange    Energy = -11.16829159754687
 Beta HF Exchange     Energy = -10.67132199969352
 Nuclear Attraction   Energy =   0.00000000000000
 One-Electron (alpha) Energy = -191.84836249764567
 One-Electron (beta)  Energy = -183.08485375455982
 Total Coulomb        Energy = 153.17704275332943
 Final Alpha MO Eigenvalues
            1           2           3           4           5           6
    1 -20.3133136 -20.3132816 -11.1265743  -1.1870219  -1.1040888  -0.5078294
            7           8           9          10          11          12
    1  -0.4201250  -0.3685492  -0.4055885  -0.2452655  -0.2191392  -0.0972123
           13          14          15          16          17          18
    1   0.2098545   0.2101503   0.2151167   0.2283429   0.2932087   0.3166942
           19          20          21          22          23          24
    1   0.3265915   0.3487047   0.3512521   0.3549897   0.4272984   0.4800199
           25          26          27          28          29          30
    1   0.4928289   0.5598581   0.6274610   0.6477215   0.7174236   0.7523446
           31          32          33          34          35          36
    1   0.7658763   0.7710489   0.7743077   0.8233989   0.8481833   0.8694364
           37          38          39          40          41          42
    1   0.8845087   0.9431454   1.0375064   1.0532199   1.1061476   1.1350214
           43          44          45          46          47          48
    1   1.1569206   1.1859033   1.2387317   1.2397815   1.2946162   1.3234856
           49          50          51          52          53          54
    1   1.3536316   1.4351201   1.4778610   1.5337390   1.5455214   1.5511396
           55          56          57          58          59          60
    1   1.6853983   1.7378514   1.7407078   1.7510733   1.7620900   1.8036938
           61          62          63          64          65          66
    1   1.8150591   1.8936140   1.9441098   2.0274019   2.0990561   2.1037469
           67          68          69          70          71          72
    1   2.1218296   2.1317934   2.1545937   2.1638328   2.2186541   2.2803819
           73          74          75          76          77          78
    1   2.3761145   2.4182693   2.4453020   2.5064519   2.5597006   2.5827714
           79          80          81          82          83          84
    1   2.6003485   2.6326172   2.6519223   2.6577934   2.7206619   2.7804114
           85          86          87          88          89          90
    1   2.7893093   2.8887205   2.9339124   2.9431298   2.9709250   3.0233267
           91          92          93          94          95          96
    1   3.0498737   3.0691337   3.1564499   3.4222470   3.5283534   3.5686887
           97          98          99         100         101         102
    1   3.6128616   3.7279371   3.8357306   3.8608695   3.9017630   4.1021519
          103         104         105         106         107         108
    1   4.2127594   4.2250746   4.2643680   4.3264509   4.5344388   4.5447244
          109         110         111         112         113         114
    1   4.6004930   4.6103276   4.7458983   5.1891023   5.2724984   5.2907165
          115         116         117         118         119         120
    1   5.2928891   5.3001111   5.3134184   5.4058145   5.6291646   5.6439477
          121         122         123         124         125         126
    1   5.6713378   5.6812460   5.7500232   5.9039265   5.9314915   5.9618158
          127         128         129         130         131         132
    1   6.0749557   6.0832635   6.1027456   6.1251622   6.1769631   6.2302191
          133         134         135         136         137         138
    1   6.2668497   6.5607690   6.6001142   6.6438723   6.7185725   6.7533871
          139         140         141         142         143         144
    1   6.9770428   7.2547098   7.3155766   7.4147903   7.4797896   7.5064069
          145         146         147         148         149         150
    1   7.5706537   8.7769300   9.1525172  11.2026151  12.0258471  12.0268559
          151         152         153         154         155         156
    1  12.0294277  12.0317789  12.2225268  12.2592173  12.2619417  12.2704897
          157         158         159         160         161         162
    1  12.3706176  12.3793904  12.4063291  12.4258464  12.4837595  12.4918596
          163         164         165         166         167         168
    1  13.1086504  13.1130730  13.1296245  13.1473097  13.4261723  13.4387177
          169         170         171         172         173         174
    1  13.4713756  13.5952606  13.6201667  13.6924306  15.6682855  15.8475899
          175         176         177         178         179         180
    1  19.2209325  19.8142105  20.5443517  20.6107943  20.7145435  20.7306997
          181         182         183         184         185         186
    1  20.9219111  21.6327301  21.6737523  34.1390876  46.5233772  46.7872856
          187         188         189         190         191         192
    1  68.7826139  68.8755688  68.9054756  68.9306698  69.4887014  69.5943825
          193         194         195         196         197         198
    1  85.1421586  85.5282825  86.2688740 107.4164758 140.2985367 140.5536066
          199         200         201         202         203         204
    1 294.9621525 295.0261549 295.0451642 295.0601748 295.4473054 295.5208426
          205         206         207         208         209
    1 348.4672651 423.2468755 423.49802751410.73847121411.0673724
 Final Beta MO Eigenvalues
            1           2           3           4           5           6
    1 -20.3069904 -20.3069446 -11.1107111  -1.1607595  -1.0791180  -0.4803399
            7           8           9          10          11          12
    1  -0.3940024  -0.3562522  -0.3346177  -0.2074982  -0.2131347   0.3759105
           13          14          15          16          17          18
    1   0.2119319   0.2163616   0.2163090   0.2391092   0.2945834   0.3174547
           19          20          21          22          23          24
    1   0.3325800   0.3526875   0.3545088   0.3556778   0.4567802   0.4829870
           25          26          27          28          29          30
    1   0.5024074   0.5906060   0.6390517   0.6608042   0.7302325   0.7649070
           31          32          33          34          35          36
    1   0.7680134   0.7801127   0.7820512   0.8314454   0.8518778   0.8805721
           37          38          39          40          41          42
    1   0.8873687   0.9482114   1.0496711   1.0700257   1.1407725   1.1461418
           43          44          45          46          47          48
    1   1.1675969   1.1891011   1.2479328   1.2494535   1.3184114   1.3323338
           49          50          51          52          53          54
    1   1.3597334   1.4388532   1.4890350   1.5405223   1.5582438   1.5584182
           55          56          57          58          59          60
    1   1.6909099   1.7472994   1.7646767   1.7776750   1.7686306   1.8155328
           61          62          63          64          65          66
    1   1.8285498   1.9049186   1.9539345   2.0314946   2.1063342   2.1071859
           67          68          69          70          71          72
    1   2.1379498   2.1341033   2.1593115   2.1758669   2.2292540   2.3089829
           73          74          75          76          77          78
    1   2.3778305   2.4240225   2.4591716   2.5156441   2.5668458   2.5875999
           79          80          81          82          83          84
    1   2.6065731   2.6383306   2.6564682   2.6655670   2.7253954   2.7849748
           85          86          87          88          89          90
    1   2.8026969   2.8958204   2.9403451   2.9542170   2.9810635   3.0294911
           91          92          93          94          95          96
    1   3.0604129   3.0734977   3.1637485   3.4254607   3.5394606   3.5799883
           97          98          99         100         101         102
    1   3.6373983   3.7321851   3.8547172   3.8793826   3.9149174   4.1139550
          103         104         105         106         107         108
    1   4.2223397   4.2285420   4.2940273   4.3511248   4.5422488   4.5547011
          109         110         111         112         113         114
    1   4.6096868   4.6198371   4.7642397   5.2075399   5.2924781   5.2937956
          115         116         117         118         119         120
    1   5.2967287   5.3044033   5.3199248   5.4129140   5.6330263   5.6494464
          121         122         123         124         125         126
    1   5.6787409   5.6896028   5.7571743   5.9136309   5.9395299   5.9661565
          127         128         129         130         131         132
    1   6.0811359   6.0920816   6.1096341   6.1333090   6.1865577   6.2346358
          133         134         135         136         137         138
    1   6.2778887   6.5646546   6.6042568   6.6524399   6.7250794   6.7654606
          139         140         141         142         143         144
    1   6.9844280   7.2574651   7.3204734   7.4244853   7.4837642   7.5149183
          145         146         147         148         149         150
    1   7.5786208   8.7862863   9.1606619  11.2135800  12.0302307  12.0314019
          151         152         153         154         155         156
    1  12.0349626  12.0373734  12.2293589  12.2627957  12.2661535  12.2769412
          157         158         159         160         161         162
    1  12.3740794  12.3850875  12.4114445  12.4330903  12.4904421  12.4980797
          163         164         165         166         167         168
    1  13.1138304  13.1187983  13.1356320  13.1533252  13.4300371  13.4431535
          169         170         171         172         173         174
    1  13.4794415  13.6029841  13.6256888  13.6980724  15.6737583  15.8528803
          175         176         177         178         179         180
    1  19.2259594  19.8279551  20.5464703  20.6173305  20.7169098  20.7385090
          181         182         183         184         185         186
    1  20.9256370  21.6386819  21.6778924  34.1455485  46.5262138  46.7901022
          187         188         189         190         191         192
    1  68.7838127  68.8767571  68.9087482  68.9334475  69.4910869  69.5962858
          193         194         195         196         197         198
    1  85.1451812  85.5336831  86.2717858 107.4198079 140.2998562 140.5549181
          199         200         201         202         203         204
    1 294.9627569 295.0267590 295.0462117 295.0611127 295.4481685 295.5215953
          205         206         207         208         209
    1 348.4690546 423.2474872 423.49863671410.73875301411.0676533
 SCF time:   CPU 28188.69s  wall 28202.00s 
<S^2> =          0.750000000
 SCF   energy in the final basis set =     -187.6640136959
 Total energy in the final basis set =     -187.6640136959
Setting RAS_srDFT_COR/EXC
  
     ##========================================##
     ||                                        ||
     ||              R A S M A N 2             ||
     ||________________________________________||
     ||                                        ||
     ||  Author:                               ||
     ||                                        ||
     ||        David Casanova (2010)           ||
     ||                                        ||
     ##========================================##
  
  ***************************************************
  *  RAS-CI Dimensions:                             *
  *                                                 *
  *  Active Elec.:  11 ( 6, 5)   Active Orb.:   9   *
  *  Doubly Occ. :   6           Doubly Vir.: 194   *
  *  Frozen Occ. :   0           Frozen Vir.:   0   *
  *                                                 *
  *  Total CI configurations:   5213376             * 
  *    Active configurations:     10584             * 
  *      Hole configurations:     69552             * 
  *  Particle configurations:   5133240             * 
  *                                                 *
  *   Requested states:       10                    *
  *  Spin multiplicity: Any multiplicity            *
  *                                                 *
  ***************************************************
-----------------------------------------
    Memory requirements of RASCI

 Each CI-vector requires     39.77 MiB 
 Max. subspace vectors           1000      

 Reduced Lists                0.00 MiB 
 Excitation Lists             0.01 MiB 
 Excitation Lists Sign        0.01 MiB 
 CI-space (Max)           40180.29 MiB 
 Integrals                   62.15 MiB 
 Memory required (Max)    40180.31 MiB 
 Memory available          7811.55 MiB 

 Q-Chem warning in module rasman2/ras_mem_check.C, line 162:

 Static memory may be insufficient to store the subspace vectors


    Disk requirements of RASCI

 Fock matrix                  0.67 MiB 
 2-electron integrals        96.89 MiB 
 CI-space                 79549.80 MiB 
 Disk required            79647.36 MiB 
-----------------------------------------
  
RAS1 HF-like energy:           -162.0980599116
 Computing integrals
 Computing J and K matrices
 Computing addressing
 Making amplitude guesses
 
Direct CI diagonalization
 ---------------------------------------------------
 Iter    Rts Conv    Rts Left    Ttl Dev     Max Dev
 ---------------------------------------------------
   1         0          10      0.001620    0.000203
   2         0          10      0.001170    0.000138
   3         0          10      0.000895    0.000111
   4         0          10      0.001017    0.000130
   5         0          10      0.001026    0.000141
   6         0          10      0.000898    0.000130
   7         0          10      0.001052    0.000133
   8         0          10      0.000994    0.000122
   9         0          10      0.000756    0.000105
  10         0          10      0.000766    0.000109
  11         0          10      0.000892    0.000134
  12         0          10      0.000725    0.000119
  13         0          10      0.001752    0.000819
  14         0          10      0.000904    0.000282
  15         0          10      0.000680    0.000222
  16         0          10      0.000803    0.000268
  17         0          10      0.000885    0.000277
  18         0          10      0.000956    0.000352
  19         0          10      0.000889    0.000365
  20         0          10      0.000846    0.000285
  21         0          10      0.000679    0.000244
  22         0          10      0.000701    0.000210
  23         0          10      0.000713    0.000229
  24         0          10      0.000770    0.000304
  25         1           9      0.000972    0.000339
  26         2           8      0.000593    0.000225
  27         2           8      0.000682    0.000221
  28         3           7      0.000718    0.000227
  29         3           7      0.000761    0.000274
  30         3           7      0.000582    0.000214
  31         3           7      0.000360    0.000118
  32         3           7      0.000308    0.000118
  33         4           6      0.000277    0.000089
  34         4           6      0.000231    0.000086
  35         4           6      0.000195    0.000076
  36         4           6      0.000242    0.000100
  37         4           6      0.000198    0.000079
  38         4           6      0.000162    0.000064
  39         4           6      0.000159    0.000068
  40         4           6      0.000195    0.000091
  41         4           6      0.000218    0.000103
  42         5           5      0.000176    0.000073
  43         5           5      0.000189    0.000091
  44         5           5      0.000150    0.000071
  45         5           5      0.000143    0.000054
  46         5           5      0.000132    0.000059
  47         5           5      0.000107    0.000052
  48         5           5      0.000092    0.000040
  49         5           5      0.000071    0.000030
  50         5           5      0.000074    0.000032
  51         5           5      0.000072    0.000031
  52         5           5      0.000083    0.000041
  53         5           5      0.000090    0.000048
  54         5           5      0.000073    0.000035
  55         5           5      0.000063    0.000032
  56         5           5      0.000057    0.000030
  57         5           5      0.000063    0.000032
  58         5           5      0.000051    0.000024
  59         6           4      0.000039    0.000017
  60         7           3      0.000033    0.000013
  61         8           2      0.000026    0.000010
  62         8           2      0.000025    0.000010
  63         8           2      0.000026    0.000011
  64         9           1      0.000025    0.000011
  65         9           1      0.000022    0.000008
  66         9           1      0.000020    0.000007
  67         9           1      0.000021    0.000008
  68         9           1      0.000021    0.000007
  69         9           1      0.000022    0.000008
  70         9           1      0.000022    0.000009
  71         9           1      0.000020    0.000006
  72         9           1      0.000017    0.000004
  73         9           1      0.000018    0.000004
  74         9           1      0.000017    0.000003
  75         9           1      0.000016    0.000003
  76         9           1      0.000015    0.000003
  77         9           1      0.000015    0.000003
  78         9           1      0.000015    0.000003
  79        10           0      0.000015    0.000003    Roots Converged
 ---------------------------------------------------
   
**************************************************
 RAS-CI total energy for state   1:   -187.706327545602
  Excitation energy (eV) =  0.000000000000
  State symmetry: A1    (C2v      )
  <S^2>      :  0.7500
  Dipole Moment:   -0.0000 X     0.0000 Y     0.3897 Z
 NATURAL OCCUPATION NUMBERS (higher than 1.0E-05)
            1           2           3           4           5           6
    1   2.0000000   2.0000000   2.0000000   1.9999798   1.9999784   1.9997493
            7           8           9          10          11          12
    1   1.9947151   1.9926130   1.9891534   1.9836819   1.9791241   1.0201637
           13          14          15          16          17          18
    1   0.0125375   0.0074098   0.0041701   0.0033527   0.0020035   0.0019910
           19          20          21          22          23          24
    1   0.0017982   0.0017501   0.0016847   0.0009593   0.0007841   0.0004357
           25          26          27          28          29          30
    1   0.0003236   0.0002529   0.0002451   0.0002405   0.0001629   0.0001085
           31          32          33          34          35          36
    1   0.0001052   0.0000859   0.0000568   0.0000555   0.0000531   0.0000383
           37          38          39          40          41          42
    1   0.0000261   0.0000257   0.0000245   0.0000220   0.0000166   0.0000147
           43
    1   0.0000143
Natural Orbitals stored in FCHK

  Amplitudes : 
  
 | HOLE  | ALPHA     | BETA      | PART  |    AMPLITUDE 
--------------------------------------------------
 |       | 111111000 | 111110000 |       |     9.6589968437687E-01
 |       | 111111000 | 110111000 |       |     1.2906066557150E-01
--------------------------------------------------
*** Contributions RASCI wfn    Active:  96.35
                                 Hole:   0.04
                                 Part:   3.61

      Mulliken population analysis 
 ---------------------------------------------------
   Atom    Charge (a.u.)   Spin (a.u.)  
 ---------------------------------------------------
   1  C    0.035155        0.831446 
   2  O   -0.517578        0.084277 
   3  O   -0.517578        0.084277 
 ---------------------------------------------------
   Sum:   -1.000000        1.000000 
 ---------------------------------------------------
 
  
 NATURAL OCCUPATION NUMBERS (higher than 1.0E-05)
            1           2           3           4           5           6
    1   2.0000000   2.0000000   2.0000000   1.9999798   1.9999784   1.9997493
            7           8           9          10          11          12
    1   1.9947151   1.9926130   1.9891534   1.9836819   1.9791241   1.0201637
           13          14          15          16          17          18
    1   0.0125375   0.0074098   0.0041701   0.0033527   0.0020035   0.0019910
           19          20          21          22          23          24
    1   0.0017982   0.0017501   0.0016847   0.0009593   0.0007841   0.0004357
           25          26          27          28          29          30
    1   0.0003236   0.0002529   0.0002451   0.0002405   0.0001629   0.0001085
           31          32          33          34          35          36
    1   0.0001052   0.0000859   0.0000568   0.0000555   0.0000531   0.0000383
           37          38          39          40          41          42
    1   0.0000261   0.0000257   0.0000245   0.0000220   0.0000166   0.0000147
           43
    1   0.0000143
  
*** Unpaired Electrons
 Yamaguchi Nd:         1.20
 Head-Gordon Nu:       1.08
 Head-Gordon Nu_nl:    1.00
  
**************************************************
 RAS-CI total energy for state   2:   -187.651435447637
  Excitation energy (eV) =  1.493689982211
  State symmetry: A1    (C2v      )
  <S^2>      :  0.7500
  Dipole Moment:   -0.0000 X     0.0000 Y     3.1848 Z
  Trans. Moment:   -0.0000 X     0.0000 Y     1.3138 Z
  Strength   :  0.063161
  Natural transition orbitals ( 1 -> 2 ):
   e-/hole pair  1 alpha:  ampl =  0.953345 ( 90.9%)   [9 : 10]
   e-/hole pair  2 alpha:  ampl =  0.025934 (  0.1%)   [8 : 11]
   e-/hole pair  1 beta :  ampl =  0.037358 (  0.1%)   [9 : 10]
   e-/hole pair  2 beta :  ampl =  0.026895 (  0.1%)   [8 : 11]
   Sum of square amplitudes: 0.91

 NATURAL OCCUPATION NUMBERS (higher than 1.0E-05)
            1           2           3           4           5           6
    1   2.0000000   2.0000000   2.0000000   1.9999364   1.9998157   1.9985495
            7           8           9          10          11          12
    1   1.9912070   1.9889766   1.9787907   1.9545611   1.9379115   0.9951797
           13          14          15          16          17          18
    1   0.1024923   0.0248019   0.0058754   0.0044531   0.0035999   0.0026897
           19          20          21          22          23          24
    1   0.0026053   0.0022083   0.0014220   0.0006984   0.0006482   0.0005534
           25          26          27          28          29          30
    1   0.0005185   0.0004700   0.0003257   0.0003072   0.0002668   0.0001415
           31          32          33          34          35          36
    1   0.0001386   0.0001318   0.0000831   0.0000827   0.0000803   0.0000755
           37          38          39          40          41          42
    1   0.0000538   0.0000511   0.0000387   0.0000381   0.0000267   0.0000249
           43          44          45          46          47
    1   0.0000219   0.0000210   0.0000208   0.0000129   0.0000111
Natural Orbitals stored in FCHK

  Amplitudes : 
  
 | HOLE  | ALPHA     | BETA      | PART  |    AMPLITUDE 
--------------------------------------------------
 |       | 111111000 | 111110000 |       |    -1.1215384595705E-01
 |       | 111110010 | 111110000 |       |     8.9617372797802E-01
 |       | 111110010 | 110111000 |       |     1.8841277637849E-01
 |       | 110111010 | 111110000 |       |     2.0046277098977E-01
--------------------------------------------------
*** Contributions RASCI wfn    Active:  90.74
                                 Hole:   0.61
                                 Part:   8.65

      Mulliken population analysis 
 ---------------------------------------------------
   Atom    Charge (a.u.)   Spin (a.u.)  
 ---------------------------------------------------
   1  C   -1.072493        1.813851 
   2  O    0.036246       -0.406926 
   3  O    0.036246       -0.406926 
 ---------------------------------------------------
   Sum:   -1.000000        1.000000 
 ---------------------------------------------------
 
  
 NATURAL OCCUPATION NUMBERS (higher than 1.0E-05)
            1           2           3           4           5           6
    1   2.0000000   2.0000000   2.0000000   1.9999364   1.9998157   1.9985495
            7           8           9          10          11          12
    1   1.9912070   1.9889766   1.9787907   1.9545611   1.9379115   0.9951797
           13          14          15          16          17          18
    1   0.1024923   0.0248019   0.0058754   0.0044531   0.0035999   0.0026897
           19          20          21          22          23          24
    1   0.0026053   0.0022083   0.0014220   0.0006984   0.0006482   0.0005534
           25          26          27          28          29          30
    1   0.0005185   0.0004700   0.0003257   0.0003072   0.0002668   0.0001415
           31          32          33          34          35          36
    1   0.0001386   0.0001318   0.0000831   0.0000827   0.0000803   0.0000755
           37          38          39          40          41          42
    1   0.0000538   0.0000511   0.0000387   0.0000381   0.0000267   0.0000249
           43          44          45          46          47
    1   0.0000219   0.0000210   0.0000208   0.0000129   0.0000111
  
*** Unpaired Electrons
 Yamaguchi Nd:         1.59
 Head-Gordon Nu:       1.30
 Head-Gordon Nu_nl:    1.07
  
**************************************************
 RAS-CI total energy for state   3:   -187.650890380315
  Excitation energy (eV) =  1.508522018669
  State symmetry: B2    (C2v      )
  <S^2>      :  0.7500
  Dipole Moment:    0.0000 X     0.0000 Y     1.5855 Z
  Trans. Moment:    0.0000 X     0.8550 Y    -0.0000 Z
  Strength   :  0.027016
  Natural transition orbitals ( 1 -> 3 ):
   e-/hole pair  1 alpha:  ampl =  0.952095 ( 90.6%)   [9 : 10]
   e-/hole pair  2 alpha:  ampl =  0.020239 (  0.0%)   [8 : 11]
   e-/hole pair  1 beta :  ampl =  0.010390 (  0.0%)   [9 : 10]
   e-/hole pair  2 beta :  ampl =  0.008134 (  0.0%)   [8 : 11]
   Sum of square amplitudes: 0.91

 NATURAL OCCUPATION NUMBERS (higher than 1.0E-05)
            1           2           3           4           5           6
    1   2.0000000   2.0000000   2.0000000   1.9999358   1.9998123   1.9984790
            7           8           9          10          11          12
    1   1.9913210   1.9890738   1.9787256   1.9552404   1.9349312   0.9979789
           13          14          15          16          17          18
    1   0.1040938   0.0252700   0.0059180   0.0045670   0.0030539   0.0027620
           19          20          21          22          23          24
    1   0.0018648   0.0015685   0.0012504   0.0006184   0.0005300   0.0004747
           25          26          27          28          29          30
    1   0.0003558   0.0002944   0.0002456   0.0002085   0.0002005   0.0001761
           31          32          33          34          35          36
    1   0.0001729   0.0001064   0.0001054   0.0001027   0.0000815   0.0000800
           37          38          39          40          41          42
    1   0.0000668   0.0000481   0.0000468   0.0000313   0.0000271   0.0000256
           43          44          45          46          47          48
    1   0.0000222   0.0000207   0.0000153   0.0000121   0.0000116   0.0000106
Natural Orbitals stored in FCHK

  Amplitudes : 
  
 | HOLE  | ALPHA     | BETA      | PART  |    AMPLITUDE 
--------------------------------------------------
 |       | 111110100 | 111110000 |       |     8.9635792030104E-01
 |       | 111110100 | 110111000 |       |     2.0461058064141E-01
 |       | 110111100 | 111110000 |       |     2.0673719395841E-01
 |       | 111110000 | 111110000 |  23   |     1.0401326177073E-01
--------------------------------------------------
*** Contributions RASCI wfn    Active:  90.47
                                 Hole:   0.68
                                 Part:   8.85

      Mulliken population analysis 
 ---------------------------------------------------
   Atom    Charge (a.u.)   Spin (a.u.)  
 ---------------------------------------------------
   1  C   -1.224137        1.910704 
   2  O    0.112069       -0.455352 
   3  O    0.112069       -0.455352 
 ---------------------------------------------------
   Sum:   -1.000000        1.000000 
 ---------------------------------------------------
 
  
 NATURAL OCCUPATION NUMBERS (higher than 1.0E-05)
            1           2           3           4           5           6
    1   2.0000000   2.0000000   2.0000000   1.9999358   1.9998123   1.9984790
            7           8           9          10          11          12
    1   1.9913210   1.9890738   1.9787256   1.9552404   1.9349312   0.9979789
           13          14          15          16          17          18
    1   0.1040938   0.0252700   0.0059180   0.0045670   0.0030539   0.0027620
           19          20          21          22          23          24
    1   0.0018648   0.0015685   0.0012504   0.0006184   0.0005300   0.0004747
           25          26          27          28          29          30
    1   0.0003558   0.0002944   0.0002456   0.0002085   0.0002005   0.0001761
           31          32          33          34          35          36
    1   0.0001729   0.0001064   0.0001054   0.0001027   0.0000815   0.0000800
           37          38          39          40          41          42
    1   0.0000668   0.0000481   0.0000468   0.0000313   0.0000271   0.0000256
           43          44          45          46          47          48
    1   0.0000222   0.0000207   0.0000153   0.0000121   0.0000116   0.0000106
  
*** Unpaired Electrons
 Yamaguchi Nd:         1.60
 Head-Gordon Nu:       1.30
 Head-Gordon Nu_nl:    1.07
  
**************************************************
 RAS-CI total energy for state   4:   -187.643762219842
  Excitation energy (eV) =  1.702489133882
  State symmetry: B1    (C2v      )
  <S^2>      :  0.7500
  Dipole Moment:    0.0000 X     0.0000 Y     0.1546 Z
  Trans. Moment:   -0.6346 X     0.0000 Y     0.0000 Z
  Strength   :  0.016796
  Natural transition orbitals ( 1 -> 4 ):
   e-/hole pair  1 alpha:  ampl =  0.948363 ( 89.9%)   [9 : 10]
   e-/hole pair  2 alpha:  ampl =  0.035115 (  0.1%)   [8 : 11]
   e-/hole pair  1 beta :  ampl =  0.035592 (  0.1%)   [9 : 10]
   e-/hole pair  2 beta :  ampl =  0.017658 (  0.0%)   [8 : 11]
   Sum of square amplitudes: 0.90

 NATURAL OCCUPATION NUMBERS (higher than 1.0E-05)
            1           2           3           4           5           6
    1   2.0000000   2.0000000   2.0000000   1.9999422   1.9998124   1.9984751
            7           8           9          10          11          12
    1   1.9910607   1.9889874   1.9773381   1.9545792   1.9292898   0.9944973
           13          14          15          16          17          18
    1   0.1113923   0.0265998   0.0060104   0.0046410   0.0044514   0.0025653
           19          20          21          22          23          24
    1   0.0019632   0.0019098   0.0011427   0.0010613   0.0007802   0.0004842
           25          26          27          28          29          30
    1   0.0004621   0.0004546   0.0003813   0.0003006   0.0002120   0.0002110
           31          32          33          34          35          36
    1   0.0001712   0.0000897   0.0000880   0.0000821   0.0000805   0.0000721
           37          38          39          40          41          42
    1   0.0000537   0.0000478   0.0000438   0.0000421   0.0000290   0.0000286
           43          44          45          46          47          48
    1   0.0000251   0.0000135   0.0000134   0.0000129   0.0000111   0.0000107
Natural Orbitals stored in FCHK

  Amplitudes : 
  
 | HOLE  | ALPHA     | BETA      | PART  |    AMPLITUDE 
--------------------------------------------------
 |       | 111110001 | 111110000 |       |     8.9093790146040E-01
 |       | 111110001 | 110111000 |       |     2.1546913118030E-01
 |       | 110111001 | 111110000 |       |     2.1500228854875E-01
--------------------------------------------------
*** Contributions RASCI wfn    Active:  90.44
                                 Hole:   0.76
                                 Part:   8.80

      Mulliken population analysis 
 ---------------------------------------------------
   Atom    Charge (a.u.)   Spin (a.u.)  
 ---------------------------------------------------
   1  C   -1.849662        2.477936 
   2  O    0.424831       -0.738968 
   3  O    0.424831       -0.738968 
 ---------------------------------------------------
   Sum:   -1.000000        1.000000 
 ---------------------------------------------------
 
  
 NATURAL OCCUPATION NUMBERS (higher than 1.0E-05)
            1           2           3           4           5           6
    1   2.0000000   2.0000000   2.0000000   1.9999422   1.9998124   1.9984751
            7           8           9          10          11          12
    1   1.9910607   1.9889874   1.9773381   1.9545792   1.9292898   0.9944973
           13          14          15          16          17          18
    1   0.1113923   0.0265998   0.0060104   0.0046410   0.0044514   0.0025653
           19          20          21          22          23          24
    1   0.0019632   0.0019098   0.0011427   0.0010613   0.0007802   0.0004842
           25          26          27          28          29          30
    1   0.0004621   0.0004546   0.0003813   0.0003006   0.0002120   0.0002110
           31          32          33          34          35          36
    1   0.0001712   0.0000897   0.0000880   0.0000821   0.0000805   0.0000721
           37          38          39          40          41          42
    1   0.0000537   0.0000478   0.0000438   0.0000421   0.0000290   0.0000286
           43          44          45          46          47          48
    1   0.0000251   0.0000135   0.0000134   0.0000129   0.0000111   0.0000107
  
*** Unpaired Electrons
 Yamaguchi Nd:         1.63
 Head-Gordon Nu:       1.32
 Head-Gordon Nu_nl:    1.08
  
**************************************************
 RAS-CI total energy for state   5:   -187.555514367597
  Excitation energy (eV) =  4.103835370149
  State symmetry: B1    (C2v      )
  <S^2>      :  0.7500
  Dipole Moment:    0.0000 X     0.0000 Y     2.4283 Z
  Trans. Moment:   -0.2993 X    -0.0000 Y     0.0000 Z
  Strength   :  0.009004
  Natural transition orbitals ( 1 -> 5 ):
   e-/hole pair  1 alpha:  ampl =  0.138874 (  1.9%)   [9 : 10]
   e-/hole pair  2 alpha:  ampl =  0.126794 (  1.6%)   [8 : 11]
   e-/hole pair  1 beta :  ampl =  0.904684 ( 81.8%)   [9 : 10]
   e-/hole pair  2 beta :  ampl =  0.091691 (  0.8%)   [8 : 11]
   Sum of square amplitudes: 0.88

 NATURAL OCCUPATION NUMBERS (higher than 1.0E-05)
            1           2           3           4           5           6
    1   2.0000000   2.0000000   2.0000000   1.9999538   1.9999049   1.9996069
            7           8           9          10          11          12
    1   1.9919716   1.9919678   1.9564624   1.9501430   1.8426618   1.0684794
           13          14          15          16          17          18
    1   0.0998539   0.0442200   0.0110519   0.0097209   0.0095813   0.0070672
           19          20          21          22          23          24
    1   0.0034176   0.0034136   0.0031684   0.0013963   0.0011674   0.0009906
           25          26          27          28          29          30
    1   0.0007006   0.0004193   0.0003910   0.0003164   0.0002849   0.0002781
           31          32          33          34          35          36
    1   0.0001770   0.0001734   0.0001328   0.0001110   0.0001071   0.0000851
           37          38          39          40          41          42
    1   0.0000598   0.0000516   0.0000507   0.0000462   0.0000432   0.0000407
           43          44          45          46          47          48
    1   0.0000343   0.0000342   0.0000322   0.0000302   0.0000233   0.0000217
           49          50          51          52
    1   0.0000174   0.0000150   0.0000124   0.0000106
Natural Orbitals stored in FCHK

  Amplitudes : 
  
 | HOLE  | ALPHA     | BETA      | PART  |    AMPLITUDE 
--------------------------------------------------
 |       | 111111000 | 111011000 |       |     8.1473267015401E-01
 |       | 111111000 | 111010010 |       |     3.3596095876685E-01
 |       | 111110010 | 111011000 |       |     2.2587572457722E-01
 |       | 111101100 | 111110000 |       |    -1.0220144590488E-01
 |       | 111011010 | 111110000 |       |    -1.1008523418946E-01
 |       | 111111000 | 111010000 |  16   |     1.1396758719581E-01
--------------------------------------------------
*** Contributions RASCI wfn    Active:  86.55
                                 Hole:   0.12
                                 Part:  13.34

      Mulliken population analysis 
 ---------------------------------------------------
   Atom    Charge (a.u.)   Spin (a.u.)  
 ---------------------------------------------------
   1  C   -0.867992       -0.082136 
   2  O   -0.066004        0.541068 
   3  O   -0.066004        0.541068 
 ---------------------------------------------------
   Sum:   -1.000000        1.000000 
 ---------------------------------------------------
 
  
 NATURAL OCCUPATION NUMBERS (higher than 1.0E-05)
            1           2           3           4           5           6
    1   2.0000000   2.0000000   2.0000000   1.9999538   1.9999049   1.9996069
            7           8           9          10          11          12
    1   1.9919716   1.9919678   1.9564624   1.9501430   1.8426618   1.0684794
           13          14          15          16          17          18
    1   0.0998539   0.0442200   0.0110519   0.0097209   0.0095813   0.0070672
           19          20          21          22          23          24
    1   0.0034176   0.0034136   0.0031684   0.0013963   0.0011674   0.0009906
           25          26          27          28          29          30
    1   0.0007006   0.0004193   0.0003910   0.0003164   0.0002849   0.0002781
           31          32          33          34          35          36
    1   0.0001770   0.0001734   0.0001328   0.0001110   0.0001071   0.0000851
           37          38          39          40          41          42
    1   0.0000598   0.0000516   0.0000507   0.0000462   0.0000432   0.0000407
           43          44          45          46          47          48
    1   0.0000343   0.0000342   0.0000322   0.0000302   0.0000233   0.0000217
           49          50          51          52
    1   0.0000174   0.0000150   0.0000124   0.0000106
  
*** Unpaired Electrons
 Yamaguchi Nd:         1.89
 Head-Gordon Nu:       1.40
 Head-Gordon Nu_nl:    1.14
  
**************************************************
 RAS-CI total energy for state   6:   -187.551871597568
  Excitation energy (eV) =  4.202960185938
  State symmetry: A2    (C2v      )
  <S^2>      :  0.7500
  Dipole Moment:    0.0000 X     0.0000 Y     2.1930 Z
  Trans. Moment:   -0.0000 X    -0.0000 Y    -0.0000 Z
  Strength   :  0.000000
  Natural transition orbitals ( 1 -> 6 ):
   e-/hole pair  1 alpha:  ampl =  0.027146 (  0.1%)   [9 : 10]
   e-/hole pair  2 alpha:  ampl =  0.018141 (  0.0%)   [8 : 11]
   e-/hole pair  1 beta :  ampl =  0.923588 ( 85.3%)   [9 : 10]
   e-/hole pair  2 beta :  ampl =  0.070408 (  0.5%)   [8 : 11]
   Sum of square amplitudes: 0.86

 NATURAL OCCUPATION NUMBERS (higher than 1.0E-05)
            1           2           3           4           5           6
    1   2.0000000   2.0000000   2.0000000   1.9999669   1.9999305   1.9998406
            7           8           9          10          11          12
    1   1.9953792   1.9932528   1.9869581   1.9456537   1.9224936   1.0262931
           13          14          15          16          17          18
    1   0.0623251   0.0272673   0.0098478   0.0090540   0.0059825   0.0031514
           19          20          21          22          23          24
    1   0.0026213   0.0021993   0.0015967   0.0010861   0.0010584   0.0010206
           25          26          27          28          29          30
    1   0.0004374   0.0003690   0.0003353   0.0003198   0.0001924   0.0001701
           31          32          33          34          35          36
    1   0.0001392   0.0001231   0.0001121   0.0001032   0.0000755   0.0000733
           37          38          39          40          41          42
    1   0.0000625   0.0000486   0.0000453   0.0000448   0.0000438   0.0000360
           43          44          45          46          47          48
    1   0.0000318   0.0000299   0.0000261   0.0000242   0.0000215   0.0000139
           49          50          51          52
    1   0.0000138   0.0000131   0.0000114   0.0000113
Natural Orbitals stored in FCHK

  Amplitudes : 
  
 | HOLE  | ALPHA     | BETA      | PART  |    AMPLITUDE 
--------------------------------------------------
 |       | 111111000 | 111101000 |       |     8.6273049031874E-01
 |       | 111111000 | 111100010 |       |     2.5842398737037E-01
 |       | 111110010 | 111101000 |       |     2.3436801451272E-01
 |       | 111110000 | 111101000 |  16   |     1.0965579629160E-01
 |       | 111111000 | 111100000 |  16   |     1.1451421329502E-01
--------------------------------------------------
*** Contributions RASCI wfn    Active:  87.42
                                 Hole:   0.06
                                 Part:  12.52

      Mulliken population analysis 
 ---------------------------------------------------
   Atom    Charge (a.u.)   Spin (a.u.)  
 ---------------------------------------------------
   1  C   -0.902663       -0.104495 
   2  O   -0.048669        0.552248 
   3  O   -0.048669        0.552248 
 ---------------------------------------------------
   Sum:   -1.000000        1.000000 
 ---------------------------------------------------
 
  
 NATURAL OCCUPATION NUMBERS (higher than 1.0E-05)
            1           2           3           4           5           6
    1   2.0000000   2.0000000   2.0000000   1.9999669   1.9999305   1.9998406
            7           8           9          10          11          12
    1   1.9953792   1.9932528   1.9869581   1.9456537   1.9224936   1.0262931
           13          14          15          16          17          18
    1   0.0623251   0.0272673   0.0098478   0.0090540   0.0059825   0.0031514
           19          20          21          22          23          24
    1   0.0026213   0.0021993   0.0015967   0.0010861   0.0010584   0.0010206
           25          26          27          28          29          30
    1   0.0004374   0.0003690   0.0003353   0.0003198   0.0001924   0.0001701
           31          32          33          34          35          36
    1   0.0001392   0.0001231   0.0001121   0.0001032   0.0000755   0.0000733
           37          38          39          40          41          42
    1   0.0000625   0.0000486   0.0000453   0.0000448   0.0000438   0.0000360
           43          44          45          46          47          48
    1   0.0000318   0.0000299   0.0000261   0.0000242   0.0000215   0.0000139
           49          50          51          52
    1   0.0000138   0.0000131   0.0000114   0.0000113
  
*** Unpaired Electrons
 Yamaguchi Nd:         1.56
 Head-Gordon Nu:       1.26
 Head-Gordon Nu_nl:    1.05
  
**************************************************
 RAS-CI total energy for state   7:   -187.546929570362
  Excitation energy (eV) =  4.337439588330
  State symmetry: A1    (C2v      )
  <S^2>      :  0.7500
  Dipole Moment:   -0.0000 X    -0.0000 Y    -1.4016 Z
  Trans. Moment:    0.0000 X    -0.0000 Y     0.0040 Z
  Strength   :  0.000002
  Natural transition orbitals ( 1 -> 7 ):
   e-/hole pair  1 alpha:  ampl =  0.938481 ( 88.1%)   [9 : 10]
   e-/hole pair  2 alpha:  ampl =  0.149667 (  2.2%)   [8 : 11]
   e-/hole pair  1 beta :  ampl =  0.094595 (  0.9%)   [9 : 10]
   e-/hole pair  2 beta :  ampl =  0.073808 (  0.5%)   [8 : 11]
   Sum of square amplitudes: 0.92

 NATURAL OCCUPATION NUMBERS (higher than 1.0E-05)
            1           2           3           4           5           6
    1   2.0000000   2.0000000   2.0000000   1.9999867   1.9999656   1.9994879
            7           8           9          10          11          12
    1   1.9969888   1.9964841   1.9957115   1.9615449   1.9375035   0.9389033
           13          14          15          16          17          18
    1   0.1161099   0.0406270   0.0041349   0.0025078   0.0020189   0.0015839
           19          20          21          22          23          24
    1   0.0013949   0.0008462   0.0007671   0.0007074   0.0005019   0.0003687
           25          26          27          28          29          30
    1   0.0003648   0.0002194   0.0002063   0.0001727   0.0001530   0.0001173
           31          32          33          34          35          36
    1   0.0000864   0.0000786   0.0000743   0.0000678   0.0000564   0.0000475
           37          38          39          40          41          42
    1   0.0000413   0.0000285   0.0000236   0.0000212   0.0000207   0.0000107
Natural Orbitals stored in FCHK

  Amplitudes : 
  
 | HOLE  | ALPHA     | BETA      | PART  |    AMPLITUDE 
--------------------------------------------------
 |       | 111011001 | 111110000 |       |    -1.4735788229786E-01
 |       | 111110000 | 111110000 |  16   |     8.8669185478726E-01
 |       | 111110000 | 111110000 |  19   |    -1.2543491327059E-01
 |       | 111110000 | 111110000 |  25   |    -1.8655271455379E-01
 |       | 110111000 | 111110000 |  16   |     1.8368427597735E-01
 |       | 111110000 | 110111000 |  16   |     1.7291437235507E-01
--------------------------------------------------
*** Contributions RASCI wfn    Active:   5.00
                                 Hole:   0.07
                                 Part:  94.93

      Mulliken population analysis 
 ---------------------------------------------------
   Atom    Charge (a.u.)   Spin (a.u.)  
 ---------------------------------------------------
   1  C   -1.770162        2.657073 
   2  O    0.385081       -0.828536 
   3  O    0.385081       -0.828536 
 ---------------------------------------------------
   Sum:   -1.000000        1.000000 
 ---------------------------------------------------
 
  
 NATURAL OCCUPATION NUMBERS (higher than 1.0E-05)
            1           2           3           4           5           6
    1   2.0000000   2.0000000   2.0000000   1.9999867   1.9999656   1.9994879
            7           8           9          10          11          12
    1   1.9969888   1.9964841   1.9957115   1.9615449   1.9375035   0.9389033
           13          14          15          16          17          18
    1   0.1161099   0.0406270   0.0041349   0.0025078   0.0020189   0.0015839
           19          20          21          22          23          24
    1   0.0013949   0.0008462   0.0007671   0.0007074   0.0005019   0.0003687
           25          26          27          28          29          30
    1   0.0003648   0.0002194   0.0002063   0.0001727   0.0001530   0.0001173
           31          32          33          34          35          36
    1   0.0000864   0.0000786   0.0000743   0.0000678   0.0000564   0.0000475
           37          38          39          40          41          42
    1   0.0000413   0.0000285   0.0000236   0.0000212   0.0000207   0.0000107
  
*** Unpaired Electrons
 Yamaguchi Nd:         1.55
 Head-Gordon Nu:       1.22
 Head-Gordon Nu_nl:    1.07
  
**************************************************
 RAS-CI total energy for state   8:   -187.540466438325
  Excitation energy (eV) =  4.513310359065
  State symmetry: B2    (C2v      )
  <S^2>      :  0.7500
  Dipole Moment:    0.0000 X    -0.0000 Y    -0.3783 Z
  Trans. Moment:   -0.0000 X     0.1721 Y     0.0000 Z
  Strength   :  0.003274
  Natural transition orbitals ( 1 -> 8 ):
   e-/hole pair  1 alpha:  ampl =  0.961335 ( 92.4%)   [9 : 10]
   e-/hole pair  2 alpha:  ampl =  0.045641 (  0.2%)   [8 : 11]
   e-/hole pair  1 beta :  ampl =  0.086652 (  0.8%)   [9 : 10]
   e-/hole pair  2 beta :  ampl =  0.050605 (  0.3%)   [8 : 11]
   Sum of square amplitudes: 0.94

 NATURAL OCCUPATION NUMBERS (higher than 1.0E-05)
[...]
   166   -2.089173108188e-02
   167    7.347983182512e-14
   168   -1.458115679607e-01
   169   -3.387719953724e-02
   170    3.419424201527e-01
   171   -4.168615438676e-14
   172   -2.373584158719e-01
   173    7.593142012540e-14
   174   -2.267855285918e-02
   175    3.494267615494e-01
   176   -4.389709754968e-14
   177   -2.280074109030e-01
   178    8.033968703719e-14
   179   -5.439813899339e-03
   180    3.549414732053e-02
   181   -7.137879992594e-15
   182   -2.234242495047e-02
   183    7.671524970287e-15
   184   -1.787706588043e-02
   185    1.957251683626e-01
   186   -2.958695394476e-14
   187   -1.213723772620e-01
   188    4.514637507835e-14
   189    3.109818646938e-02
   190    1.394547441509e-02
   191    1.233863332726e-15
   192   -6.231707097363e-02
   193    5.137513926779e-15
   194    3.279874859483e-02
   195   -1.093188675795e-14
   196    3.536079059027e-02
   197    1.417722952325e-02
   198    2.316623002360e-15
   199   -6.686943342374e-02
   200    2.403324153480e-15
   201    2.581629332732e-02
   202   -1.238428425605e-14
   203    1.800115799830e-02
   204    6.001048022300e-03
   205    2.936784077022e-16
   206   -3.125496887876e-02
   207   -7.137301345323e-16
   208    5.576378416423e-03
   209   -4.139440610296e-15
Sym=X
Ene= 0.752345
Spin=Alpha
Occup=0
     1   -1.445413661106e-15
     2   -3.845223009103e-13
     3   -8.622267241312e-16
     4    1.658328729855e-14
     5   -2.301299631640e-12
     6   -1.240452315937e-12
     7   -2.495126831631e-13
     8    2.897158373571e-15
     9    8.026177496859e-15
    10   -1.454239140958e-16
    11   -1.249406748716e-03
    12    4.176753881633e-16
    13   -4.438727023583e-15
    14   -6.841212756385e-03
    15   -2.342676398464e-16
    16    4.415919043519e-13
    17    2.224411006767e+00
    18   -2.539246827390e-13
    19    1.806695934464e-13
    20    1.590951923729e+00
    21   -1.446462534984e-13
    22   -6.915576872313e-14
    23    1.197259319173e-02
    24    7.694925772762e-14
    25    8.995630073489e-15
    26   -2.245994775323e-02
    27    6.704736620502e-14
    28    1.944598753413e-14
    29   -3.912118174186e-02
    30    4.539355304765e-14
    31    4.817095490673e-13
    32   -1.650449356247e-13
    33   -1.139063148618e+00
    34   -4.721763574267e-13
    35   -2.421746048664e-12
    36    3.424410237974e-13
    37   -8.923004575973e-14
    38   -9.101619720416e-01
    39   -3.108023612906e-13
    40   -1.700281293146e-12
    41    1.159786637500e-13
    42   -1.867454209707e-14
    43   -4.134108746318e-01
    44   -9.166537181000e-14
    45   -5.384810283330e-13
    46   -1.917384273297e-14
    47    6.197690755706e-15
    48   -1.026333231148e-02
    49   -1.741810742742e-14
    50    3.614020891929e-13
    51    1.766072447388e-14
    52    2.542585923136e-01
    53   -9.368010713423e-15
    54    6.327406357368e-15
    55   -1.098623020951e-02
    56   -2.050418858311e-14
    57    2.895068548784e-13
    58    9.382272581411e-15
    59    2.006472857887e-01
    60   -4.401236774579e-16
    61    2.438714742935e-13
    62   -9.903044892578e-16
    63    4.553329225532e-15
    64   -1.102671096863e-14
    65    1.516371390856e-12
    66   -2.257474900160e-14
    67   -5.331383445586e-13
    68   -1.721465162447e-13
    69    9.276185135721e-13
    70    3.694747001913e-17
    71   -7.538814377811e-05
    72    3.920523444095e-17
    73    4.166937154502e-16
    74   -1.198203516078e-03
    75    9.610386404639e-16
    76    3.812619543531e-13
    77   -1.038554014766e+00
    78    4.590685799086e-13
    79    3.785465746811e-13
    80   -1.284776021623e+00
    81    5.762438186336e-13
    82    2.618517156189e-15
    83    1.683375797283e-02
    84   -1.931564766220e-14
    85    6.144322933694e-14
    86   -3.787720342670e-01
    87    1.321098606383e-13
    88    2.697030021383e-14
    89   -1.338077997526e-01
    90    2.055943779584e-14
    91    1.432826284405e-14
    92    5.571561023142e-03
    93   -6.468363594900e-14
    94    6.168894606578e-14
    95    1.276317118429e-13
    96   -1.591260271971e-01
    97    4.329166706150e-15
    98   -2.737051245167e-01
    99    7.661598088224e-14
   100    1.266026903776e-13
   101   -1.535259945660e-01
   102   -2.353848885299e-14
   103   -3.091729592075e-01
   104    1.366792796032e-14
   105    1.150523374925e-14
   106   -2.090442970280e-02
   107   -1.015025244325e-14
   108   -3.047858618388e-02
   109    5.531636508895e-14
   110    6.780593312853e-14
   111   -9.331314885783e-02
   112   -3.180911202789e-14
   113   -1.795787727727e-01
   114   -6.151790500116e-15
   115    1.785299613157e-14
   116    2.131199513751e-03
   117    1.630560683126e-14
   118   -2.457718316612e-02
   119   -5.125341286841e-15
   120   -5.742187919848e-02
   121   -4.538488311885e-15
   122    2.288137571027e-14
   123    8.169724062375e-03
   124    1.511117220447e-14
   125   -2.256332601163e-02
   126   -9.688539815872e-15
   127   -7.602459884936e-02
   128   -6.556593119848e-16
   129    1.278334780009e-14
   130    7.766605406676e-03
   131    5.370042711351e-15
   132   -6.908552535961e-03
   133   -6.537298543388e-15
   134   -4.372514975882e-02
   135   -2.130193395509e-16
   136    1.185350462439e-13
   137   -4.813045411222e-16
   138    2.184197118465e-15
   139   -5.647795319552e-15
   140    7.833850840090e-13
   141   -1.412959196066e-14
   142   -2.525045399910e-13
   143   -8.870086794710e-14
   144    6.254986156678e-13
   145    1.234993558438e-17
   146   -7.538814377784e-05
   147    3.008729946897e-17
   148    2.175756442050e-16
   149   -1.198203516068e-03
   150    9.464821994054e-16
   151   -4.589024446730e-14
   152   -1.038554014763e+00
   153    4.160507245046e-13
   154   -7.552106352819e-14
   155   -1.284776021619e+00
   156    5.450300343518e-13
   157   -6.025069278014e-15
   158    1.683375797258e-02
   159   -2.290696730719e-14
   160   -7.479680762621e-14
   161   -3.787720342662e-01
   162    1.426219083265e-13
   163   -6.217826920815e-14
   164   -1.338077997527e-01
   165    2.295911828713e-14
   166   -6.238074558117e-14
   167    5.571561022152e-03
   168   -7.263074606358e-14
   169    1.084401885359e-13
   170   -8.908449944617e-14
   171   -1.591260271967e-01
   172   -5.218660268451e-14
   173    2.737051245156e-01
   174    1.184804519324e-13
   175   -1.005648649612e-13
   176   -1.535259945656e-01
   177   -6.124589414664e-14
   178    3.091729592063e-01
   179    1.734030115657e-14
   180   -1.313451556301e-14
   181   -2.090442970274e-02
   182   -5.997364125473e-15
   183    3.047858618373e-02
   184    7.638207150705e-14
   185   -6.275936284714e-14
   186   -9.331314885754e-02
   187   -3.657345551570e-14
   188    1.795787727719e-01
   189   -7.632231962688e-16
   190   -2.294933636722e-14
   191    2.131199513689e-03
   192    9.561388490846e-15
   193    2.457718316602e-02
   194    1.424952040657e-14
   195   -5.742187919829e-02
   196    8.063078739009e-17
   197   -2.685883524419e-14
   198    8.169724062302e-03
   199    1.010738518396e-14
   200    2.256332601150e-02
   201    1.735740096932e-14
   202   -7.602459884914e-02
   203    8.571514654296e-16
   204   -1.412202863687e-14
   205    7.766605406639e-03
   206    3.920887970838e-15
   207    6.908552535894e-03
   208    9.520642877110e-15
   209   -4.372514975871e-02
Sym=X
Ene= 0.765876
Spin=Alpha
Occup=0
     1   -1.452441722132e-16
     2   -3.819268309163e-14
     3   -1.003479779233e-15
     4    2.421127631504e-15
     5    9.538210056236e-15
     6    1.901922735860e-13
     7    3.155525592921e-14
     8   -3.036379465224e-14
     9   -3.238949474293e-14
    10    5.895997372519e-16
    11   -5.775112175485e-16
    12   -2.159081929079e-16
    13    1.730470595889e-15
    14    7.008061731147e-15
    15   -2.355287131893e-16
    16   -9.144056002727e-13
    17    8.951114111184e-13
    18    1.914855025785e-13
    19   -5.904326541680e-13
    20    9.753298302678e-13
    21    6.978228397778e-14
    22    1.807823073974e-14
    23    2.673181012820e-13
    24   -4.953989628944e-14
    25    3.647850387477e-15
    26    7.245217408606e-14
    27   -2.658995586874e-14
    28    1.680700835383e-14
    29   -2.992034002530e-14
    30   -1.775243729338e-14
    31   -2.229831237785e-13
    32   -3.352050584112e-13
    33   -6.569316636321e-13
    34    2.404587126370e-13
    35    3.158465309843e+00
    36   -1.686428470672e-13
    37   -2.607590189873e-13
    38   -5.676071676313e-13
    39    1.943192856323e-13
    40    2.235163631362e+00
    41   -5.680940928880e-14
    42   -9.757429584809e-14
    43   -2.855965980987e-13
    44    6.862555341253e-14
    45    7.205119145211e-01
    46    3.977019744094e-14
    47    1.013536284067e-13
    48    2.757922917242e-14
    49   -3.445684936048e-14
    50   -4.593915278363e-01
    51   -3.533301079631e-14
    52    1.365582474179e-14
    53    3.287693135056e-14
    54    7.680739571222e-14
    55    1.741893061648e-14
    56   -2.677914356534e-14
    57   -3.732967496225e-01
    58   -2.196006786452e-14
    59    3.146771580671e-14
    60    2.779735499638e-16
    61   -1.536510980572e-13
    62    6.268269752768e-16
    63   -2.859713701338e-15
    64    7.266672922994e-15
    65   -9.950600400894e-13
    66    1.514125310198e-14
    67    2.957649158579e-13
    68    1.017470027720e-13
    69   -8.504103423675e-13
    70   -6.201171360235e-18
    71    1.613374827614e-04
    72   -4.175834783168e-17
    73    3.454218872711e-16
    74    6.851308581738e-03
    75   -1.202078723673e-15
    76   -1.543371380460e-13
    77    1.980288021347e+00
    78   -4.942444460840e-13
    79   -1.926413157799e-13
    80    2.652377389504e+00
    81   -6.163561300954e-13
    82   -1.571656173399e-14
    83   -1.820536184091e-01
    84    2.727327822185e-14
    85   -9.734104847131e-14
    86    5.370919309890e-01
    87   -1.368020069225e-13
    88   -7.858075469803e-14
    89   -8.756283525076e-02
    90   -9.791365321035e-15
    91   -9.630350880244e-14
    92   -7.010110006030e-01
    93    9.735180793014e-14
    94   -5.346890214063e-14
    95   -1.373285173530e-13
    96    2.355245381811e-01
    97    2.833662258139e-14
    98    7.280654714816e-01
    99   -5.946124790671e-14
   100   -1.470803644835e-13
   101    2.827641966921e-01
   102    2.664284369137e-14
   103    7.984599503071e-01
   104   -5.814149273224e-15
   105   -1.673945515192e-14
   106    4.183609689819e-02
   107    9.460111051591e-16
   108    9.331252634341e-02
   109   -3.398222646506e-14
   110   -8.700037370652e-14
   111    1.857430716750e-01
   112    1.195470912259e-14
   113    4.795490961088e-01
   114    1.182825275524e-14
   115   -1.516049076798e-14
   116   -3.903155705546e-02
   117   -1.103434786266e-14
   118    6.582397387167e-02
   119    7.713575504899e-15
   120    1.193484116539e-01
   121    1.424370338378e-14
   122   -1.716361489465e-14
   123   -4.636926794897e-02
   124   -1.319424212336e-14
   125    8.186819296076e-02
   126    7.110222593001e-15
   127    1.412417005940e-01
   128    7.466133143899e-15
   129   -8.123266160808e-15
   130   -2.376457690849e-02
   131   -6.735280296207e-15
   132    4.431883958445e-02
   133    2.453370713564e-15
   134    7.152662182261e-02
   135   -8.469094359743e-17
   136    5.134153795760e-14
   137   -1.935430675593e-16
   138    8.003768779833e-16
   139   -2.991924095173e-15
   140    5.438601925556e-13
   141   -1.886853115989e-14
   142   -1.435248716073e-13
   143   -7.370078885895e-14
   144    8.338780695239e-13
   145   -7.401964561768e-18
   146   -1.613374827614e-04
   147    2.651936391519e-17
   148   -4.305516838699e-16
   149   -6.851308581738e-03
   150    3.524443521689e-16
   151   -3.387809662448e-13
   152   -1.980288021348e+00
   153    2.911448621466e-13
   154   -4.982478156639e-13
   155   -2.652377389506e+00
   156    3.292485294479e-13
   157    9.928745726637e-15
   158    1.820536184091e-01
   159   -2.903439635305e-15
   160   -1.904826757027e-13
   161   -5.370919309896e-01
   162    7.558114611580e-14
   163   -7.840439671457e-14
   164    8.756283525046e-02
   165    2.245119667954e-14
   166   -9.180099234369e-15
   167    7.010110006028e-01
   168   -5.838946444087e-15
   169   -2.062530818943e-16
   170   -1.074254839589e-13
   171   -2.355245381812e-01
   172    8.733934231186e-14
   173    7.280654714817e-01
   174   -2.573897667667e-15
   175   -1.087035115211e-13
   176   -2.827641966921e-01
   177    9.591330200620e-14
   178    7.984599503072e-01
   179   -1.753990057990e-15
   180   -8.404009887403e-15
   181   -4.183609689820e-02
   182    1.048928025386e-14
   183    9.331252634343e-02
   184   -4.346984398954e-15
   185   -5.700253513717e-14
   186   -1.857430716750e-01
   187    5.636463316511e-14
   188    4.795490961089e-01
   189   -8.431987677592e-15
   190   -2.987282636418e-15
   191    3.903155705547e-02
   192    1.630882705936e-14
   193    6.582397387164e-02
   194   -1.998415885213e-14
   195   -1.193484116540e-01
   196   -9.027997594602e-15
   197   -3.720062751809e-15
   198    4.636926794899e-02
   199    1.784162086142e-14
   200    8.186819296072e-02
   201   -2.217149122735e-14
   202   -1.412417005940e-01
   203   -3.937183582096e-15
   204   -1.826369248792e-15
   205    2.376457690850e-02
   206    7.990622837190e-15
   207    4.431883958443e-02
   208   -1.049077563537e-14
   209   -7.152662182264e-02
Sym=X
Ene= 0.771049
Spin=Alpha
Occup=0
     1    1.881633990000e-14
     2    4.747371201247e-12
     3   -1.954673796159e-13
     4   -6.243552096135e-14
     5    6.709819383785e-11
     6    6.640532834010e-11
     7    1.024875868571e-11
     8   -6.824682081962e-12
     9   -8.417365087939e-12
    10   -4.149421372400e-03
    11   -8.169125095327e-17
    12   -5.948148317312e-14
    13   -3.184393574369e-02
    14    4.747222663688e-16
    15   -6.320019279543e-14
    16    7.392666354077e+00
    17    8.701556517882e-15
    18    5.259464488728e-11
    19    4.296236975119e+00
    20    2.063142963172e-14
    21    2.294860262394e-11
    22   -4.593780573152e-01
    23    1.225283296293e-14
    24   -1.242294072335e-11
    25   -3.214858104171e-02
    26    3.122016229294e-15
    27   -7.962049839311e-12
    28   -2.890934355969e-02
    29   -1.897483232110e-15
    30   -5.272989254828e-12
    31   -5.886190548470e-11
    32    2.334850329038e+00
    33   -1.076975702107e-15
    34    5.837920528947e-11
    35    3.951924323073e-13
    36   -4.370402120586e-11
    37    1.874004651483e+00
    38   -3.164216713599e-16
    39    4.439175325643e-11
    40    2.827200056887e-13
    41   -1.507057465817e-11
    42    7.214412522672e-01
    43   -2.294317141923e-16
    44    1.507388280256e-11
    45    9.349547547814e-14
    46    6.305148781247e-12
    47   -7.686194544463e-01
    48   -3.366004276537e-16
    49   -4.153019182715e-12
    50   -5.212541551681e-14
    51    3.293320718290e-01
    52   -6.295321601153e-16
    53    5.056684296579e-12
    54   -5.760855082780e-01
    55   -1.217320778587e-15
    56   -3.239217681448e-12
    57   -4.126922495828e-14
    58    1.997581500257e-01
    59   -2.164430281745e-16
    60   -1.457285997333e-03
    61    8.204883096980e-01
    62   -3.299350740062e-03
    63    1.482429686672e-02
    64   -3.980388472833e-02
    65    5.908818687288e+00
    66   -1.171101992348e-01
    67   -1.752223424401e+00
    68   -6.602002992371e-01
    69    5.848432975463e+00
    70    9.880192431925e-05
    71   -6.640181217551e-17
    72    2.736231157597e-04
    73    9.720504456175e-04
    74    8.283801675282e-16
    75    6.362415414683e-03
    76    2.026779423781e+00
    77    2.426910947853e-13
    78    3.015440214466e+00
    79    2.608072270145e+00
    80    3.268876562303e-13
    81    3.597559098256e+00
    82    1.731364752978e-02
    83   -2.396227493294e-14
    84   -1.246132721027e-01
    85    9.256104405374e-01
    86    6.432381566162e-14
    87    7.465815645446e-01
    88    4.839511915900e-01
    89   -1.408998778603e-14
    90    7.005708658720e-02
    91    3.060146053246e-01
    92   -9.349040408470e-14
    93   -4.584898955178e-01
    94    2.351556716670e-01
    95    9.610550854120e-01
    96    3.135418246538e-14
    97    2.631499978313e-01
    98    8.956828728060e-14
    99    2.598022292689e-01
   100    9.911222033742e-01
   101    3.695340491032e-14
   102    2.753938620897e-01
   103    9.875193249195e-14
   104    2.530697121742e-02
   105    9.264752493919e-02
   106    5.261521664037e-15
   107    2.899878916795e-02
   108    1.185680238469e-14
   109    1.491548949759e-01
   110    5.479428611639e-01
   111    2.390145767630e-14
   112    1.562452542262e-01
   113    5.987366822243e-14
   114   -7.552888513193e-02
   115    8.585893254341e-02
   116   -4.454943719892e-15
   117    1.098330995241e-01
   118    8.944301919826e-15
   119    3.937540258047e-02
   120    1.417108995612e-14
   121   -8.443127243136e-02
   122    1.019528276055e-01
   123   -5.311116992323e-15
   124    1.223379143862e-01
   125    1.103697043425e-14
   126    4.512795882171e-02
   127    1.705629251477e-14
   128   -3.993235350962e-02
   129    5.152661787191e-02
   130   -2.727021942808e-15
   131    5.710657635738e-02
   132    5.956232558325e-15
   133    2.262706275766e-02
   134    8.917917111748e-15
   135    1.457285997386e-03
   136   -8.204883097262e-01
   137    3.299350740180e-03
   138   -1.482429686727e-02
   139    3.980388472957e-02
   140   -5.908818687432e+00
   141    1.171101992357e-01
   142    1.752223424453e+00
   143    6.602002992510e-01
   144   -5.848432975507e+00
   145    9.880192431897e-05
   146   -1.413237014999e-16
   147   -2.736231157650e-04
   148    9.720504454848e-04
   149   -8.271752554190e-16
   150   -6.362415414925e-03
   151    2.026779423756e+00
   152   -2.498159342025e-13
   153   -3.015440214537e+00
   154    2.608072270102e+00
   155   -3.451267392041e-13
   156   -3.597559098354e+00
   157    1.731364753449e-02
   158    2.303587361999e-14
   159    1.246132721092e-01
   160    9.256104405244e-01
   161   -7.670455408074e-14
   162   -7.465815645666e-01
   163    4.839511915923e-01
   164    5.332807375206e-15
   165   -7.005708658590e-02
   166    3.060146053418e-01
   167    8.429859313869e-14
   168    4.584898955417e-01
   169   -2.351556716835e-01
   170    9.610550854259e-01
   171   -2.895569320059e-14
   172   -2.631499978090e-01
   173    8.665094631082e-14
   174   -2.598022292881e-01
   175    9.911222033901e-01
   176   -3.570804661450e-14
   177   -2.753938620647e-01
   178    9.561488495790e-14
   179   -2.530697122000e-02
   180    9.264752494150e-02
   181   -5.436072924879e-15
   182   -2.899878916524e-02
   183    1.101438305306e-14
   184   -1.491548949881e-01
   185    5.479428611742e-01
   186   -2.345999479951e-14
   187   -1.562452542113e-01
   188    5.766158376007e-14
   189    7.552888513261e-02
   190    8.585893254746e-02
   191    3.870893708532e-15
   192   -1.098330995244e-01
   193    5.641800759962e-15
   194    3.937540257503e-02
   195   -1.525531293965e-14
   196    8.443127243228e-02
   197    1.019528276102e-01
   198    4.948381024163e-15
   199   -1.223379143865e-01
   200    7.587319960214e-15
   201    4.512795881544e-02
   202   -1.845261568788e-14
   203    3.993235351016e-02
   204    5.152661787425e-02
   205    3.447294630999e-15
   206   -5.710657635759e-02
   207    4.039202165571e-15
   208    2.262706275461e-02
   209   -1.039939592305e-14
[5D7F]

======= END OF MOLDEN-FORMATTED INPUT FILE =======


        *************************************************************
        *                                                           *
        *  Thank you very much for using Q-Chem.  Have a nice day.  *
        *                                                           *
        *************************************************************


