                  Welcome to Q-Chem
     A Quantum Leap Into The Future Of Chemistry


 Q-Chem 5.4 (devel), Q-Chem, Inc., Pleasanton, CA (2021)

 E. Epifanovsky,  A. T. B. Gilbert,  Xintian Feng,  Joonho Lee,  Yuezhi Mao,  
 N. Mardirossian,  P. Pokhilko,  A. White,  M. Wormit,  M. P. Coons,  
 A. L. Dempwolff,  Zhengting Gan,  D. Hait,  P. R. Horn,  L. D. Jacobson,  
 I. Kaliman,  J. Kussmann,  A. W. Lange,  Ka Un Lao,  D. S. Levine,  Jie Liu,  
 S. C. McKenzie,  A. F. Morrison,  K. Nanda,  F. Plasser,  D. R. Rehn,  
 M. L. Vidal,  Zhi-Qiang You,  Ying Zhu,  B. Alam,  B. Albrecht,  
 A. Aldossary,  E. Alguire,  J. H. Andersen,  D. Barton,  K. Begam,  A. Behn,  
 Y. A. Bernard,  E. J. Berquist,  H. Burton,  A. Carreras,  K. Carter-Fenk,  
 Romit Chakraborty,  A. D. Chien,  K. D. Closser,  V. Cofer-Shabica,  
 S. Dasgupta,  Jia Deng,  M. de Wergifosse,  M. Diedenhofen,  Hainam Do,  
 S. Ehlert,  Po-Tung Fang,  S. Fatehi,  Qingguo Feng,  T. Friedhoff,  
 J. Gayvert,  Qinghui Ge,  G. Gidofalvi,  M. Goldey,  J. Gomes,  
 C. Gonzalez-Espinoza,  S. Gulania,  A. Gunina,  M. W. D. Hanson-Heine,  
 P. H. P. Harbach,  A. W. Hauser,  M. F. Herbst,  M. Hernandez Vera,  
 M. Hodecker,  Z. C. Holden,  S. Houck,  Xunkun Huang,  Kerwin Hui,  
 B. C. Huynh,  M. Ivanov,  Hyunjun Ji,  Hanjie Jiang,  B. Kaduk,  S. Kaehler,  
 K. Khistyaev,  Jaehoon Kim,  P. Klunzinger,  Z. Koczor-Benda,  
 Joong Hoon Koh,  D. Kosenkov,  L. Koulias,  T. Kowalczyk,  C. M. Krauter,  
 K. Kue,  A. Kunitsa,  T. Kus,  A. Landau,  K. V. Lawler,  D. Lefrancois,  
 S. Lehtola,  Rain Li,  Yi-Pei Li,  Jiashu Liang,  M. Liebenthal,  
 Hung-Hsuan Lin,  You-Sheng Lin,  Fenglai Liu,  Kuan-Yu Liu,  
 M. Loipersberger,  A. Luenser,  A. Manjanath,  P. Manohar,  E. Mansoor,  
 S. F. Manzer,  Shan-Ping Mao,  A. V. Marenich,  T. Markovich,  S. Mason,  
 S. A. Maurer,  P. F. McLaughlin,  M. F. S. J. Menger,  J.-M. Mewes,  
 S. A. Mewes,  P. Morgante,  J. W. Mullinax,  K. J. Oosterbaan,  G. Paran,  
 Alexander C. Paul,  Suranjan K. Paul,  F. Pavosevic,  Zheng Pei,  S. Prager,  
 E. I. Proynov,  E. Ramos,  B. Rana,  A. E. Rask,  A. Rettig,  R. M. Richard,  
 F. Rob,  E. Rossomme,  T. Scheele,  M. Scheurer,  M. Schneider,  
 N. Sergueev,  S. M. Sharada,  W. Skomorowski,  D. W. Small,  C. J. Stein,  
 Yu-Chuan Su,  E. J. Sundstrom,  Zhen Tao,  J. Thirman,  T. Tsuchimochi,  
 N. M. Tubman,  S. P. Veccham,  O. Vydrov,  J. Wenzel,  J. Witte,  A. Yamada,  
 Kun Yao,  S. Yeganeh,  S. R. Yost,  A. Zech,  Igor Ying Zhang,  Xing Zhang,  
 Yu Zhang,  D. Zuev,  A. Aspuru-Guzik,  A. T. Bell,  N. A. Besley,  
 K. B. Bravaya,  B. R. Brooks,  D. Casanova,  Jeng-Da Chai,  S. Coriani,  
 C. J. Cramer,  A. E. DePrince, III,  R. A. DiStasio Jr.,  A. Dreuw,  
 B. D. Dunietz,  T. R. Furlani,  W. A. Goddard III,  S. Grimme,  
 S. Hammes-Schiffer,  T. Head-Gordon,  W. J. Hehre,  Chao-Ping Hsu,  
 T.-C. Jagau,  Yousung Jung,  A. Klamt,  Jing Kong,  D. S. Lambrecht,  
 WanZhen Liang,  N. J. Mayhall,  C. W. McCurdy,  J. B. Neaton,  T. Neudecker,  
 C. Ochsenfeld,  J. A. Parkhill,  R. Peverati,  V. A. Rassolov,  Yihan Shao,  
 L. V. Slipchenko,  R. P. Steele,  J. E. Subotnik,  A. J. W. Thom,  
 A. Tkatchenko,  D. G. Truhlar,  T. Van Voorhis,  T. A. Wesolowski,  
 K. B. Whaley,  H. L. Woodcock III,  P. M. Zimmerman,  S. Faraji,  
 P. M. W. Gill,  M. Head-Gordon,  J. M. Herbert,  A. I. Krylov

 Additional authors since Version 5.4.0: 
 Chandrima Chakravarty,  L. Cunha,  R. Kang,  Yongbin Kim,  S. Kotaru,  
 Shaozhi Li,  Xiangyuan Li,  F. Matz,  V. Parravicini,  Haisheng Ren,  
 Hengyuan Shen,  Yingli Su,  Hung-Yi Tsai,  C. Utku,  Fan Wang,  Jeff Yang,  
 F. Zeller

 Contributors to earlier versions of Q-Chem not listed above: 
 R. D. Adamson,  B. Austin,  R. Baer,  J. Baker,  G. J. O. Beran,  
 K. Brandhorst,  S. T. Brown,  E. F. C. Byrd,  Arup K. Chakraborty,  
 G. K. L. Chan,  Chun-Min Chang,  Yunqing Chen,  C.-L. Cheng,  
 Siu Hung Chien,  D. M. Chipman,  D. L. Crittenden,  H. Dachsel,  
 R. J. Doerksen,  A. D. Dutoi,  R. G. Edgar,  J. Fosso-Tande,  
 L. Fusti-Molnar,  D. Ghosh,  A. Ghysels,  A. Golubeva-Zadorozhnaya,  
 J. Gonthier,  M. S. Gordon,  S. R. Gwaltney,  G. Hawkins,  J. E. Herr,  
 A. Heyden,  S. Hirata,  E. G. Hohenstein,  G. Kedziora,  F. J. Keil,  
 C. Kelley,  Jihan Kim,  R. A. King,  R. Z. Khaliullin,  P. P. Korambath,  
 W. Kurlancheek,  A. Laurent,  A. M. Lee,  M. S. Lee,  S. V. Levchenko,  
 Ching Yeh Lin,  D. Liotard,  E. Livshits,  R. C. Lochan,  I. Lotan,  
 L. A. Martinez-Martinez,  P. E. Maslen,  N. Nair,  D. P. O'Neill,  
 D. Neuhauser,  E. Neuscamman,  C. M. Oana,  R. Olivares-Amaya,  R. Olson,  
 T. M. Perrine,  B. Peters,  P. A. Pieniazek,  A. Prociuk,  Y. M. Rhee,  
 J. Ritchie,  M. A. Rohrdanz,  E. Rosta,  N. J. Russ,  H. F. Schaefer III,  
 M. W. Schmidt,  N. E. Schultz,  S. Sharma,  N. Shenvi,  C. D. Sherrill,  
 A. C. Simmonett,  A. Sodt,  T. Stein,  D. Stuck,  K. S. Thanthiriwatte,  
 V. Vanovschi,  L. Vogt,  Tao Wang,  A. Warshel,  M. A. Watson,  
 C. F. Williams,  Q. Wu,  X. Xu,  Jun Yang,  W. Zhang,  Yan Zhao

   Please cite Q-Chem as follows:
  "Software for the frontiers of quantum chemistry:
   An overview of developments in the Q-Chem 5 package"
   J. Chem. Phys. 155, 084801 (2021)
   https://doi.org/10.1063/5.0055522 (open access)

 Q-Chem 5.4.2 for Intel X86 EM64T Linux

 Parts of Q-Chem use Armadillo 9.900.5 (Nocturnal Misbehaviour).
 http://arma.sourceforge.net/

 Q-Chem begins on Thu May 12 18:23:08 2022  

orc24
 Host: 0

     Scratch files written to /scratch/sven/qchem2297//
 Processing $rem in /qcsoftware/qchem_latest/config/preferences:
 Processing $rem in /home/users/sven/.qchemrc:
 Core orbitals will be frozen

 Checking the input file for inconsistencies... 	...done.

--------------------------------------------------------------
User input:
--------------------------------------------------------------
$molecule
0 1
  Fe    0.0000000    0.0000000    0.0000000
  S    0.0589639    0.0589639    2.1982881
  S    2.1357228   -0.2630263   -0.5009019
  N    0.1440111    1.9042268    0.0630648
  N   -0.3181940    0.4367622   -1.9557746
  N   -0.1120424   -1.8939069   -0.0040616
  N   -1.9943917   -0.2125272    0.0040616
  C    0.7651849    1.7624400    2.4614023
  C    0.1891240    2.6285887    1.3386943
  H   -0.8521096    2.8884230    1.5895682
  H    0.7519276    3.5678789    1.2204863
  C    0.1206494    2.5574852   -1.0625744
  H    0.2261773    3.6445545   -1.1116055
  C   -0.1334541    1.7599811   -2.2372223
  C   -0.2485405    2.2541023   -3.5405557
  H   -0.0907354    3.3157778   -3.7286271
  C   -0.5756403    1.3708607   -4.5663030
  H   -0.6683280    1.7276926   -5.5920278
  C   -0.7968237    0.0243562   -4.2601381
  H   -1.0692160   -0.6952221   -5.0307115
  C   -0.6620094   -0.4031412   -2.9403415
  H   -0.8304626   -1.4432399   -2.6618202
  C    0.2768672    2.2718686    3.8210766
  H    0.6546015    1.6285913    4.6279511
  H   -0.8210647    2.2877890    3.8697103
  H    0.6518287    3.2924859    3.9971651
  C    2.2950274    1.7268636    2.4240797
  H    2.6795212    1.0894110    3.2318540
  H    2.6934265    2.7444005    2.5657518
  H    2.6671890    1.3310020    1.4702865
  C    2.2669781   -2.1217855   -0.5959588
  C    1.0964228   -2.6841281    0.2139783
  H    0.9126040   -3.7452951   -0.0181754
  H    1.3273289   -2.5931900    1.2882756
  C   -1.2893152   -2.4447264   -0.0645884
  H   -1.4322840   -3.5282701   -0.0574830
  C   -2.3934824   -1.5174289   -0.0885450
  C   -3.7462362   -1.8655605   -0.1709617
  H   -4.0270594   -2.9162973   -0.2403570
  C   -4.7012118   -0.8530783   -0.1625180
  H   -5.7616621   -1.0953817   -0.2272523
  C   -4.2809248    0.4786199   -0.0703564
  H   -4.9972640    1.2987821   -0.0602688
  C   -2.9190734    0.7591040    0.0091422
  H   -2.5521780    1.7827783    0.0784639
  C    3.5984101   -2.5445525    0.0292979
  H    4.4395260   -2.1096612   -0.5285553
  H    3.7010451   -3.6408466   -0.0030245
  H    3.6649753   -2.2166463    1.0756980
  C    2.1915233   -2.5628199   -2.0608713
  H    2.9876122   -2.0860161   -2.6483068
  H    1.2285227   -2.2969677   -2.5151249
  H    2.3140524   -3.6557044   -2.1318113
$end

$rem
   BASIS  =  6-31G
   UNRESTRICTED = FALSE
   SCF_ALGORITHM = DIIS_GDM
   THRESH_DIIS_SWITCH = 4
   SCF_MAX_CYCLES = 250
 METHOD            = EOM-MP2
 IP_STATES         = [30]
 CC_STATE_TO_OPT   = [1,1]
 CC_REF_PROP = 1
 CC_EOM_PROP = 1
 CC_EOM_PROP_TE           = 1
 CC_TRANS_PROP            = 1
 CC_BACKEND = XM
 CALC_SOC = TRUE
 !SCF_GUESS = AUTOSAD
 BASIS 6-31G
 !CC_FNO_THRESH 9900
 CHOLESKY_TOL = 3
 MEM_TOTAL = 90000
 CC_MEMORY = 72000
 MEM_STATIC = 1000
 STATE_ANALYSIS = TRUE
 !NTO_PAIRS = 4
 PRINT_ORBITALS = 15
 MOLDEN_FORMAT = TRUE
$end

--------------------------------------------------------------
 ----------------------------------------------------------------
             Standard Nuclear Orientation (Angstroms)
    I     Atom           X                Y                Z
 ----------------------------------------------------------------
    1      Fe      0.2531535547     0.0666778966     0.0680124271
    2      S       1.8478720788     1.3376342820     0.8932195217
    3      S       1.3789177803    -1.7387119751    -0.5274871498
    4      N       0.5788219243     0.9438164326    -1.5979300010
    5      N      -1.3064583646    -0.6518791726    -1.0128896622
    6      N      -0.0074985725    -0.7917636753     1.7397157136
    7      N      -1.1678483076     1.2578812729     0.8325847154
    8      C       2.6911334175     1.8683316910    -0.6806542284
    9      C       1.5770829828     2.0126939960    -1.7201657185
   10      H       1.0453643624     2.9612962955    -1.5411462415
   11      H       1.9787405604     2.0395603316    -2.7453176553
   12      C      -0.1683796915     0.6237361077    -2.6145883731
   13      H      -0.0259186695     1.0598301089    -3.6069525849
   14      C      -1.2495587825    -0.2866990272    -2.3272928708
   15      C      -2.2014577370    -0.7288345614    -3.2516754437
   16      H      -2.1224873024    -0.4200629793    -4.2937176449
   17      C      -3.2372871233    -1.5472671957    -2.8084000979
   18      H      -3.9909482332    -1.9095698629    -3.5075160316
   19      C      -3.3046364786    -1.8858427901    -1.4532012040
   20      H      -4.1068485421    -2.5108770422    -1.0638917530
   21      C      -2.3209668839    -1.4142392504    -0.5855744307
   22      H      -2.3417148378    -1.6528489965     0.4776239573
   23      C       3.3527946495     3.2266067135    -0.4277130217
   24      H       4.1259520556     3.1361786985     0.3479065656
   25      H       2.6157421831     3.9745770368    -0.1031098638
   26      H       3.8371117412     3.5865368670    -1.3492064827
   27      C       3.7382988692     0.8372827735    -1.1089758110
   28      H       4.5173978284     0.7458525725    -0.3399986011
   29      H       4.2145919067     1.1604627933    -2.0485894480
   30      H       3.2913584482    -0.1536099354    -1.2616454892
   31      C       1.2287722433    -2.7906542955     1.0061761783
   32      C       0.9219454046    -1.8357837087     2.1622499085
   33      H       0.5288647805    -2.3721769014     3.0406177467
   34      H       1.8493935601    -1.3152322509     2.4530559478
   35      C      -0.9307914901    -0.3338407110     2.5339912374
   36      H      -1.1287894169    -0.7683485139     3.5171277003
   37      C      -1.6372341606     0.8228095697     2.0413060852
   38      C      -2.6803037290     1.4811487303     2.7020075245
   39      H      -3.0260913000     1.1075522116     3.6656370162
   40      C      -3.2508771403     2.6017132069     2.1053911200
   41      H      -4.0657574058     3.1327319435     2.5967622226
   42      C      -2.7643536012     3.0359234599     0.8671216337
   43      H      -3.1839716111     3.9084181726     0.3685403009
   44      C      -1.7233260681     2.3368140051     0.2612023000
   45      H      -1.3195638800     2.6412924367    -0.7039897976
   46      C       2.5661740371    -3.4970493152     1.2401667037
   47      H       2.8065516918    -4.1540154936     0.3925697380
   48      H       2.5120853338    -4.1200082545     2.1470492797
   49      H       3.3806960690    -2.7699928765     1.3620246769
   50      C       0.1026628434    -3.8111614342     0.8148225770
   51      H       0.2944807048    -4.4356104204    -0.0680416474
   52      H      -0.8698476730    -3.3209926123     0.6793541216
   53      H       0.0357113527    -4.4678373382     1.6972831423
 ----------------------------------------------------------------
 Molecular Point Group                 C1    NOp =  1
 Largest Abelian Subgroup              C1    NOp =  1
 Nuclear Repulsion Energy =        3797.04945256 hartrees
 There are      116 alpha and      116 beta electrons
 Requested basis set is 6-31G
 There are 139 shells and 323 basis functions
 Total memory of 90000 MB is distributed as follows: 
   MEM_STATIC is set to 1000 MB
   QALLOC/CCMAN JOB total memory use is  89000 MB
 Warning: actual memory use might exceed 90000 MB

 Total QAlloc Memory Limit  90000 MB
 Mega-Array Size       978 MB
 MEM_STATIC part      1000 MB

 A cutoff of  1.0D-14 yielded   7300 shell pairs
 There are     45165 function pairs
 Smallest overlap matrix eigenvalue = 8.67E-04

 Scale SEOQF with 1.000000e-01/1.000000e-01/1.000000e-01

 Standard Electronic Orientation quadrupole field applied
 Nucleus-field energy     =     0.0000000301 hartrees
 Guess from superposition of atomic densities
 Warning:  Energy on first SCF cycle will be non-variational
 SAD guess density has 232.003893 electrons

 -----------------------------------------------------------------------
  General SCF calculation program by
  Eric Jon Sundstrom, Paul Horn, Yuezhi Mao, Dmitri Zuev, Alec White,
  David Stuck, Shaama M.S., Shane Yost, Joonho Lee, David Small,
  Daniel Levine, Susi Lehtola, Hugh Burton, Evgeny Epifanovsky,
  Bang C. Huynh
 -----------------------------------------------------------------------
 Hartree-Fock
 using 12 threads for integral computing
 -------------------------------------------------------
 OpenMP Integral computing Module                
 Release: version 1.0, May 2013, Q-Chem Inc. Pittsburgh 
 -------------------------------------------------------
 A restricted SCF calculation will be
 performed using DIIS, GDM
 SCF converges when RMS gradient is below 1.0e-08
 ---------------------------------------
  Cycle       Energy         DIIS error
 ---------------------------------------
    1   -3057.2252636387      8.74e-02  
    2   -3046.1671048863      6.99e-03  
    3   -3036.6677894599      2.65e-02  
    4   -3046.7909705698      4.50e-03  
    5   -3046.9438452720      2.28e-03  
    6   -3047.0205446290      1.18e-03  
    7   -3047.0381714190      4.49e-04  
    8   -3047.0443978420      2.05e-04  
    9   -3047.0467680925      1.73e-04  
   10   -3047.0495935758      1.42e-04  
   11   -3047.0536259937      9.42e-05  Done DIIS. Switching to GDM
 ---------------------------------------
  Cycle       Energy        RMS Gradient
 ---------------------------------------
    1   -3047.0536259937      2.77e-03   Normal BFGS step
    2   -3047.0540466740      2.72e-03   Normal BFGS step
    3   -3047.0557771848      2.48e-03   Normal BFGS step
    4   -3047.0562999478      2.92e-03   Normal BFGS step
    5   -3047.0565707354      1.02e-03   Normal BFGS step
    6   -3047.0566427198      5.44e-04   Normal BFGS step
    7   -3047.0566600059      4.18e-04   Normal BFGS step
    8   -3047.0566711634      3.06e-04   Normal BFGS step
    9   -3047.0566853864      2.42e-04   Normal BFGS step
   10   -3047.0566935984      2.45e-04   Normal BFGS step
   11   -3047.0566966260      1.61e-04   Normal BFGS step
   12   -3047.0566974498      7.50e-05   Normal BFGS step
   13   -3047.0566977427      4.61e-05   Normal BFGS step
   14   -3047.0566978635      2.75e-05   Normal BFGS step
   15   -3047.0566979220      1.85e-05   Normal BFGS step
   16   -3047.0566979391      1.31e-05   Normal BFGS step
   17   -3047.0566979447      6.68e-06   Normal BFGS step
   18   -3047.0566979458      3.14e-06   Normal BFGS step
   19   -3047.0566979461      1.21e-06   Normal BFGS step
   20   -3047.0566979462      6.71e-07   Normal BFGS step
   21   -3047.0566979462      3.23e-07   Normal BFGS step
   22   -3047.0566979462      2.49e-07   Normal BFGS step
   23   -3047.0566979462      1.82e-07   Normal BFGS step
   24   -3047.0566979462      1.76e-07   Normal BFGS step
   25   -3047.0566979462      8.00e-08   Normal BFGS step
   26   -3047.0566979462      6.12e-08   Normal BFGS step
   27   -3047.0566979462      5.18e-08   Normal BFGS step
   28   -3047.0566979462      4.73e-08   Normal BFGS step
   29   -3047.0566979462      3.32e-08   Normal BFGS step
   30   -3047.0566979462      9.89e-09  Convergence criterion met
 ---------------------------------------
 SCF time:   CPU 827.02s  wall 78.00s 
 SCF   energy in the final basis set =    -3047.0566979462
 Total energy in the final basis set =    -3047.0566979462
 mp2 is not implemented in computing transition properties!


 ------------------------------------------------------------------------------

   CCMAN2: suite of methods based on coupled cluster
           and equation of motion theories.

   Components:
   * libvmm-1.3-trunk
     by Evgeny Epifanovsky, Ilya Kaliman.
   * libtensor-2.5-trunk
     by Evgeny Epifanovsky, Michael Wormit, Dmitry Zuev, Sam Manzer, 
        Ilya Kaliman.
   * libcc-2.5-trunk
     by Evgeny Epifanovsky, Arik Landau, Tomasz Kus, Kirill Khistyaev, 
        Dmitry Zuev, Prashant Manohar, Xintian Feng, Anna Krylov, 
        Matthew Goldey, Alec White, Thomas Jagau, Kaushik Nanda, 
        Anastasia Gunina, Alexander Kunitsa, Joonho Lee.

   CCMAN original authors:
   Anna I. Krylov, C. David Sherrill, Steven R. Gwaltney,
   Edward F. C. Byrd (2000)
   Sergey V. Levchenko, Lyudmila V. Slipchenko, Tao Wang,
   Ana-Maria C. Cristian (2003)
   Piotr A. Pieniazek, C. Melania Oana, Evgeny Epifanovsky (2007)
   Prashant Manohar (2009)

 ------------------------------------------------------------------------------


 Calculation will run on 12 cores using libxm for tensor contractions

 ------------------------------------------------------------------------------
Libxm Tensor Library
Copyright (c) 2014-2018 Ilya Kaliman
https://github.com/ilyak/libxm
Reference: https://dx.doi.org/10.1002/jcc.24713
 ------------------------------------------------------------------------------


 Alpha MOs, Restricted
 -- Occupied --                  
-261.23  -91.78  -91.78  -31.82  -27.30  -27.30  -27.30  -15.62
  1 A     2 A     3 A     4 A     5 A     6 A     7 A     8 A                  
-15.620 -15.614 -15.613 -11.325 -11.323 -11.319 -11.318 -11.316
  9 A    10 A    11 A    12 A    13 A    14 A    15 A    16 A                  
-11.314 -11.297 -11.294 -11.287 -11.285 -11.281 -11.280 -11.257
 17 A    18 A    19 A    20 A    21 A    22 A    23 A    24 A                  
-11.251 -11.228 -11.222 -11.192 -11.182 -11.181 -11.162  -8.806
 25 A    26 A    27 A    28 A    29 A    30 A    31 A    32 A                  
 -8.806  -6.489  -6.488  -6.486  -6.486  -6.485  -6.484  -4.026
 33 A    34 A    35 A    36 A    37 A    38 A    39 A    40 A                  
 -2.609  -2.604  -2.604  -1.323  -1.314  -1.263  -1.262  -1.126
 41 A    42 A    43 A    44 A    45 A    46 A    47 A    48 A                  
 -1.123  -1.099  -1.097  -1.063  -1.058  -0.967  -0.962  -0.907
 49 A    50 A    51 A    52 A    53 A    54 A    55 A    56 A                  
 -0.905  -0.902  -0.890  -0.886  -0.884  -0.840  -0.827  -0.816
 57 A    58 A    59 A    60 A    61 A    62 A    63 A    64 A                  
 -0.816  -0.757  -0.750  -0.716  -0.710  -0.691  -0.689  -0.685
 65 A    66 A    67 A    68 A    69 A    70 A    71 A    72 A                  
 -0.678  -0.650  -0.648  -0.646  -0.643  -0.629  -0.615  -0.611
 73 A    74 A    75 A    76 A    77 A    78 A    79 A    80 A                  
 -0.600  -0.596  -0.582  -0.571  -0.571  -0.555  -0.552  -0.549
 81 A    82 A    83 A    84 A    85 A    86 A    87 A    88 A                  
 -0.538  -0.514  -0.512  -0.504  -0.502  -0.492  -0.488  -0.482
 89 A    90 A    91 A    92 A    93 A    94 A    95 A    96 A                  
 -0.477  -0.471  -0.464  -0.451  -0.447  -0.441  -0.441  -0.431
 97 A    98 A    99 A   100 A   101 A   102 A   103 A   104 A                  
 -0.409  -0.406  -0.398  -0.396  -0.355  -0.352  -0.347  -0.344
105 A   106 A   107 A   108 A   109 A   110 A   111 A   112 A                  
 -0.287  -0.268  -0.237  -0.224
113 A   114 A   115 A   116 A                                                  
 -- Virtual --                   
  0.044   0.050   0.093   0.097   0.172   0.175   0.189   0.194
117 A   118 A   119 A   120 A   121 A   122 A   123 A   124 A                  
  0.210   0.223   0.229   0.233   0.242   0.249   0.266   0.268
125 A   126 A   127 A   128 A   129 A   130 A   131 A   132 A                  
  0.275   0.278   0.285   0.289   0.293   0.299   0.307   0.323
133 A   134 A   135 A   136 A   137 A   138 A   139 A   140 A                  
  0.327   0.333   0.338   0.340   0.341   0.344   0.349   0.356
141 A   142 A   143 A   144 A   145 A   146 A   147 A   148 A                  
  0.358   0.366   0.373   0.377   0.380   0.385   0.391   0.398
149 A   150 A   151 A   152 A   153 A   154 A   155 A   156 A                  
  0.401   0.405   0.409   0.412   0.422   0.425   0.430   0.438
157 A   158 A   159 A   160 A   161 A   162 A   163 A   164 A                  
  0.446   0.455   0.456   0.463   0.464   0.472   0.479   0.488
165 A   166 A   167 A   168 A   169 A   170 A   171 A   172 A                  
  0.500   0.504   0.513   0.530   0.603   0.605   0.624   0.639
173 A   174 A   175 A   176 A   177 A   178 A   179 A   180 A                  
  0.662   0.674   0.681   0.692   0.704   0.709   0.718   0.728
181 A   182 A   183 A   184 A   185 A   186 A   187 A   188 A                  
  0.733   0.746   0.754   0.756   0.761   0.767   0.778   0.785
189 A   190 A   191 A   192 A   193 A   194 A   195 A   196 A                  
  0.792   0.798   0.804   0.812   0.822   0.823   0.829   0.832
197 A   198 A   199 A   200 A   201 A   202 A   203 A   204 A                  
  0.833   0.838   0.843   0.851   0.856   0.864   0.868   0.871
205 A   206 A   207 A   208 A   209 A   210 A   211 A   212 A                  
  0.877   0.886   0.889   0.895   0.902   0.927   0.944   0.950
213 A   214 A   215 A   216 A   217 A   218 A   219 A   220 A                  
  0.961   0.977   0.980   0.987   1.001   1.008   1.015   1.027
221 A   222 A   223 A   224 A   225 A   226 A   227 A   228 A                  
  1.034   1.040   1.047   1.050   1.059   1.062   1.082   1.085
229 A   230 A   231 A   232 A   233 A   234 A   235 A   236 A                  
  1.086   1.091   1.093   1.099   1.106   1.117   1.123   1.131
237 A   238 A   239 A   240 A   241 A   242 A   243 A   244 A                  
  1.135   1.142   1.147   1.150   1.154   1.169   1.176   1.182
245 A   246 A   247 A   248 A   249 A   250 A   251 A   252 A                  
  1.191   1.193   1.209   1.216   1.219   1.234   1.237   1.244
253 A   254 A   255 A   256 A   257 A   258 A   259 A   260 A                  
  1.252   1.262   1.263   1.269   1.277   1.280   1.284   1.286
261 A   262 A   263 A   264 A   265 A   266 A   267 A   268 A                  
  1.293   1.300   1.303   1.309   1.309   1.317   1.324   1.327
269 A   270 A   271 A   272 A   273 A   274 A   275 A   276 A                  
  1.336   1.338   1.352   1.354   1.382   1.391   1.401   1.416
277 A   278 A   279 A   280 A   281 A   282 A   283 A   284 A                  
  1.426   1.443   1.448   1.472   1.488   1.503   1.519   1.527
285 A   286 A   287 A   288 A   289 A   290 A   291 A   292 A                  
  1.543   1.553   1.577   1.597   1.642   1.671   1.698   1.736
293 A   294 A   295 A   296 A   297 A   298 A   299 A   300 A                  
  1.740   1.750   1.777   1.801   1.810   1.828   1.843   1.937
301 A   302 A   303 A   304 A   305 A   306 A   307 A   308 A                  
  1.957   1.969   2.023   2.028   2.073   2.104   2.186   2.204
309 A   310 A   311 A   312 A   313 A   314 A   315 A   316 A                  
  2.243   2.324   2.526   2.646   2.667   2.779  21.498
317 A   318 A   319 A   320 A   321 A   322 A   323 A                          

 Beta MOs, Restricted
 -- Occupied --                  
-261.23  -91.78  -91.78  -31.82  -27.30  -27.30  -27.30  -15.62
  1 A     2 A     3 A     4 A     5 A     6 A     7 A     8 A                  
-15.620 -15.614 -15.613 -11.325 -11.323 -11.319 -11.318 -11.316
  9 A    10 A    11 A    12 A    13 A    14 A    15 A    16 A                  
-11.314 -11.297 -11.294 -11.287 -11.285 -11.281 -11.280 -11.257
 17 A    18 A    19 A    20 A    21 A    22 A    23 A    24 A                  
-11.251 -11.228 -11.222 -11.192 -11.182 -11.181 -11.162  -8.806
 25 A    26 A    27 A    28 A    29 A    30 A    31 A    32 A                  
 -8.806  -6.489  -6.488  -6.486  -6.486  -6.485  -6.484  -4.026
 33 A    34 A    35 A    36 A    37 A    38 A    39 A    40 A                  
 -2.609  -2.604  -2.604  -1.323  -1.314  -1.263  -1.262  -1.126
 41 A    42 A    43 A    44 A    45 A    46 A    47 A    48 A                  
 -1.123  -1.099  -1.097  -1.063  -1.058  -0.967  -0.962  -0.907
 49 A    50 A    51 A    52 A    53 A    54 A    55 A    56 A                  
 -0.905  -0.902  -0.890  -0.886  -0.884  -0.840  -0.827  -0.816
 57 A    58 A    59 A    60 A    61 A    62 A    63 A    64 A                  
 -0.816  -0.757  -0.750  -0.716  -0.710  -0.691  -0.689  -0.685
 65 A    66 A    67 A    68 A    69 A    70 A    71 A    72 A                  
 -0.678  -0.650  -0.648  -0.646  -0.643  -0.629  -0.615  -0.611
 73 A    74 A    75 A    76 A    77 A    78 A    79 A    80 A                  
 -0.600  -0.596  -0.582  -0.571  -0.571  -0.555  -0.552  -0.549
 81 A    82 A    83 A    84 A    85 A    86 A    87 A    88 A                  
 -0.538  -0.514  -0.512  -0.504  -0.502  -0.492  -0.488  -0.482
 89 A    90 A    91 A    92 A    93 A    94 A    95 A    96 A                  
 -0.477  -0.471  -0.464  -0.451  -0.447  -0.441  -0.441  -0.431
 97 A    98 A    99 A   100 A   101 A   102 A   103 A   104 A                  
 -0.409  -0.406  -0.398  -0.396  -0.355  -0.352  -0.347  -0.344
105 A   106 A   107 A   108 A   109 A   110 A   111 A   112 A                  
 -0.287  -0.268  -0.237  -0.224
113 A   114 A   115 A   116 A                                                  
 -- Virtual --                   
  0.044   0.050   0.093   0.097   0.172   0.175   0.189   0.194
117 A   118 A   119 A   120 A   121 A   122 A   123 A   124 A                  
  0.210   0.223   0.229   0.233   0.242   0.249   0.266   0.268
125 A   126 A   127 A   128 A   129 A   130 A   131 A   132 A                  
  0.275   0.278   0.285   0.289   0.293   0.299   0.307   0.323
133 A   134 A   135 A   136 A   137 A   138 A   139 A   140 A                  
  0.327   0.333   0.338   0.340   0.341   0.344   0.349   0.356
141 A   142 A   143 A   144 A   145 A   146 A   147 A   148 A                  
  0.358   0.366   0.373   0.377   0.380   0.385   0.391   0.398
149 A   150 A   151 A   152 A   153 A   154 A   155 A   156 A                  
  0.401   0.405   0.409   0.412   0.422   0.425   0.430   0.438
157 A   158 A   159 A   160 A   161 A   162 A   163 A   164 A                  
  0.446   0.455   0.456   0.463   0.464   0.472   0.479   0.488
165 A   166 A   167 A   168 A   169 A   170 A   171 A   172 A                  
  0.500   0.504   0.513   0.530   0.603   0.605   0.624   0.639
173 A   174 A   175 A   176 A   177 A   178 A   179 A   180 A                  
  0.662   0.674   0.681   0.692   0.704   0.709   0.718   0.728
181 A   182 A   183 A   184 A   185 A   186 A   187 A   188 A                  
  0.733   0.746   0.754   0.756   0.761   0.767   0.778   0.785
189 A   190 A   191 A   192 A   193 A   194 A   195 A   196 A                  
  0.792   0.798   0.804   0.812   0.822   0.823   0.829   0.832
197 A   198 A   199 A   200 A   201 A   202 A   203 A   204 A                  
  0.833   0.838   0.843   0.851   0.856   0.864   0.868   0.871
205 A   206 A   207 A   208 A   209 A   210 A   211 A   212 A                  
  0.877   0.886   0.889   0.895   0.902   0.927   0.944   0.950
213 A   214 A   215 A   216 A   217 A   218 A   219 A   220 A                  
  0.961   0.977   0.980   0.987   1.001   1.008   1.015   1.027
221 A   222 A   223 A   224 A   225 A   226 A   227 A   228 A                  
  1.034   1.040   1.047   1.050   1.059   1.062   1.082   1.085
229 A   230 A   231 A   232 A   233 A   234 A   235 A   236 A                  
  1.086   1.091   1.093   1.099   1.106   1.117   1.123   1.131
237 A   238 A   239 A   240 A   241 A   242 A   243 A   244 A                  
  1.135   1.142   1.147   1.150   1.154   1.169   1.176   1.182
245 A   246 A   247 A   248 A   249 A   250 A   251 A   252 A                  
  1.191   1.193   1.209   1.216   1.219   1.234   1.237   1.244
253 A   254 A   255 A   256 A   257 A   258 A   259 A   260 A                  
  1.252   1.262   1.263   1.269   1.277   1.280   1.284   1.286
261 A   262 A   263 A   264 A   265 A   266 A   267 A   268 A                  
  1.293   1.300   1.303   1.309   1.309   1.317   1.324   1.327
269 A   270 A   271 A   272 A   273 A   274 A   275 A   276 A                  
  1.336   1.338   1.352   1.354   1.382   1.391   1.401   1.416
277 A   278 A   279 A   280 A   281 A   282 A   283 A   284 A                  
  1.426   1.443   1.448   1.472   1.488   1.503   1.519   1.527
285 A   286 A   287 A   288 A   289 A   290 A   291 A   292 A                  
  1.543   1.553   1.577   1.597   1.642   1.671   1.698   1.736
293 A   294 A   295 A   296 A   297 A   298 A   299 A   300 A                  
  1.740   1.750   1.777   1.801   1.810   1.828   1.843   1.937
301 A   302 A   303 A   304 A   305 A   306 A   307 A   308 A                  
  1.957   1.969   2.023   2.028   2.073   2.104   2.186   2.204
309 A   310 A   311 A   312 A   313 A   314 A   315 A   316 A                  
  2.243   2.324   2.526   2.646   2.667   2.779  21.498
317 A   318 A   319 A   320 A   321 A   322 A   323 A                          

 Occupation and symmetry of molecular orbitals

 Point group: C1 (1 irreducible representation).

                           A     All 
 -------------------------------------
 All molecular orbitals:
  - Alpha                  323   323 
  - Beta                   323   323 
 -------------------------------------
 Alpha orbitals:
  - Frozen occupied        43    43  
  - Active occupied        73    73  
  - Active virtual         207   207 
  - Frozen virtual         0     0   
 -------------------------------------
 Beta orbitals:
  - Frozen occupied        43    43  
  - Active occupied        73    73  
  - Active virtual         207   207 
  - Frozen virtual         0     0   
 -------------------------------------

 Import integrals:   CPU 0.00 s  wall 0.00 s

      Cholesky decomposition of two-electron integrals.
      with threshold: 1.0000000000e-03

      Initial pre-allocated memory: 35 (GB)
 ------------------------------------------------------------------------------
    Rank   Residual
 ------------------------------------------------------------------------------
       1  9.73029612478870
       7  3.52041676997390
      30  0.97686930275972
     103  0.22026403358246
     282  0.06246641852260
     520  0.01553707709653
     651  0.00383248718223
     871  0.00099659023144
 ------------------------------------------------------------------------------
      The final rank of CD vector is 871
      The final allocated memory: 35 (GB)
 Cholesky decomposition time:   CPU 156.46 s  wall 15.42 s
 Import integrals:   CPU 430.13 s  wall 52.90 s

 Computing CCSD intermediates for later calculations in double precision
 Finished.

 MP2 amplitudes:   CPU 5018.78 s  wall 509.77 s

        Solving for EOMIP-CCSD A transitions.

Running a double precision version
      CD-EOMIP-CCSD/MP2 right amplitudes will be solved using Davidson.
        Amplitudes will be solved using standard  algorithm.
     Hard-coded thresholds: 
     LinDepThresh=1.00e-15  NormThresh=1.00e-06  ReorthogonThresh=1.00e-02

      Roots     MaxVec    MaxIter   Precond   Conv      Shift    
      30        120       60        1         1.00e-05  0.00e+00  
 ------------------------------------------------------------------------------
      Iter ConvRoots NVecs ResNorm^2 Current eigenvalues (eV)
 ------------------------------------------------------------------------------
      0    0      30    1.17e-01   6.7055   7.1006   8.0706   8.5495   10.5056   10.6521   11.2692   11.3551   12.1187   12.2490   12.3470   12.7121   12.7791   13.0693   13.1042   13.3298   13.4996   13.7938   13.9330   14.1369   14.2440   14.3329   14.5109   14.7068   14.7327   15.0340   15.0793   15.5342   15.8695   16.0944   
      1    0      60    2.32e-02   4.7134   4.7542   6.0068   6.3916   7.2607   7.4519   7.6991   8.4193   8.5219   9.6203   9.6590   10.3044   10.4026   10.5414   10.6623   10.8019   10.9466   11.1473   11.1665   11.4593   11.7411   11.8914   12.0728   12.1200   12.3861   12.4597   12.6564   13.1871   13.4340   13.5111   
      2    0      90    2.01e-03   3.9973   4.4306   5.4093   5.5671   6.0934   6.4823   6.5492   8.1114   8.1952   9.2424   9.2716   9.9359   9.9857   10.1534   10.3367   10.3692   10.5558   10.6592   10.7038   10.9928   11.4179   11.5510   11.6077   11.7788   11.9964   12.1279   12.2914   12.8499   13.0832   13.1587   
      3    0      120   4.38e-04   3.7998   4.4139   5.1359   5.2527   5.9524   6.2136   6.4311   8.0944   8.1772   9.2145   9.2386   9.8940   9.9686   10.1169   10.3193   10.3289   10.5230   10.6065   10.6555   10.9311   11.3922   11.5196   11.5468   11.7516   11.9635   12.1049   12.2673   12.8275   13.0355   13.1189   
      4    0      60    9.96e-05   3.7623   4.4125   5.0864   5.2013   5.9380   6.1612   6.4198   8.0930   8.1762   9.2094   9.2323   9.8970   9.9687   10.1191   10.3195   10.3314   10.5245   10.6095   10.6565   10.9293   11.3902   11.5174   11.5485   11.7456   11.9602   12.1001   12.2636   12.8244   13.0357   13.1188   
      5    2      90    1.06e-04   3.7551   4.4114*  5.0720   5.1840   5.9337   6.1368   6.4136   8.0918   8.1739   9.2071   9.2286   9.8880   9.9665*  10.1122   10.3167   10.3239   10.5185   10.6003   10.6443   10.9092   11.3841   11.5088   11.5315   11.7402   11.9539   12.0952   12.2605   12.8187   13.0287   13.1164   
Found complex roots...
      6    4      118   2.60e-03   3.7355   4.4106*  5.0411   5.1526   5.9242   6.1017   6.4072   8.0897*  8.1728*  9.2043   9.2237   9.8900   9.9665*  10.1134   10.3155   10.3258   10.5179   10.5950   10.6398   10.8691   11.3735   11.4544   11.5169   11.6062   11.7351   11.9497   12.0855   12.2468   12.5438   12.6426   
Found complex roots...
      7    9      120   1.72e-03   3.7347*  4.4106*  5.0410*  5.1526   5.9240*  6.0978   6.4071   8.0896*  8.1728*  9.2039*  9.2228   9.8896*  9.9664*  10.1132   10.3135   10.3256   10.5157   10.5891   10.6265   10.7888   11.0963   11.3828   11.5003   11.5426   11.7228   11.8812   11.9480   12.1168   12.2640   12.6282   
      8    12     51    6.34e-04   3.7349*  4.4108*  5.0412*  5.1527*  5.9239*  6.0961   6.4065*  8.0893*  8.1725*  9.2036*  9.2218   9.8884*  9.9662*  10.1109   10.3030   10.3228*  10.4738   10.5299   10.6014   10.6829   10.9713   11.3784   11.4166   11.5346   11.5625   11.7170   11.9060   12.0363   12.1139   12.2722   
      9    8      69    1.44e-03   3.7350*  4.4108*  5.0414*  5.1522*  5.9240*  6.0961   6.4065*  8.0893*  8.1724*  9.2032   9.2190   9.8842   9.8945   9.9662   10.1136   10.3201   10.3265   10.5201   10.5947   10.6491   10.8794   10.9338   11.3196   11.4362   11.5185   11.5476   11.7625   11.9645   12.0982   12.2634   
Found complex roots...
      10   9      91    2.45e-03   3.7350*  4.4108*  5.0413*  5.1523*  5.9240*  6.0961*  6.4064*  8.0891*  8.1721*  9.1984   9.2028   9.3055   9.8865   9.9654   10.1049   10.2415   10.3187   10.3251   10.5186   10.5949   10.6479   10.7670   10.8901   11.2151   11.3902   11.4779   11.5020   11.5208   11.7433   11.9575   
      11   9      112   2.53e-03   3.7351*  4.4108*  5.0414*  5.1526*  5.9240*  6.0960*  6.4064*  8.0890*  8.1719*  8.7848   9.2019   9.2242   9.4807   9.8855   9.9446   9.9700   10.1139   10.2464   10.2716   10.3177   10.3322   10.5183   10.5973   10.6413   10.8958   10.9285   11.3620   11.4061   11.5122   11.5722   
      12   9      120   1.67e-03   3.7351*  4.4108*  5.0414*  5.1526*  5.9240*  6.0960*  6.4064*  8.0888*  8.1716*  8.5026   8.8607   9.2015   9.2217   9.5629   9.8000   9.8886   9.9671   10.1137   10.1673   10.3153   10.3275   10.4137   10.5174   10.5935   10.6342   10.8395   11.0781   11.2229   11.3849   11.5077   
      13   12     51    6.49e-04   3.7351*  4.4108*  5.0415*  5.1525*  5.9240*  6.0960*  6.4064*  8.0886*  8.1712*  8.4108   8.6819   9.2007   9.2205   9.4456   9.6350   9.8887*  9.9664*  10.0379   10.1126*  10.2262   10.3147   10.3258   10.5167   10.5863   10.6247   10.7455   10.9239   10.9985   11.3820   11.5054   
      14   10     69    7.66e-04   3.7351*  4.4108*  5.0415*  5.1529*  5.9240*  6.0960*  6.4065*  8.0887*  8.1708*  8.3316   8.5085   9.1989   9.2177   9.3270   9.4939   9.8879*  9.9302   9.9662   10.0833   10.1130   10.3117   10.3250   10.4920   10.5356   10.5983   10.6524   10.6874   10.9528   11.3798   11.5019   
      15   9      89    1.74e-03   3.7350*  4.4108*  5.0415*  5.1525*  5.9241*  6.0959*  6.4063*  8.0884*  8.1704   8.2825   8.4006   9.1858   9.2147   9.2401   9.3541   9.8369   9.8880*  9.9377   9.9695   10.1117   10.2981   10.3233   10.3624   10.3831   10.5210   10.5947   10.6446   10.7149   10.9409   11.3778   
      16   9      110   1.56e-03   3.7351*  4.4108*  5.0415*  5.1526*  5.9240*  6.0959*  6.4063*  8.0883*  8.1698*  8.2535   8.3475   9.1390   9.1925   9.2092   9.2425   9.4120   9.7353   9.8788   9.8956   9.9682   10.0981   10.1203   10.2202   10.3228   10.3326   10.4934   10.5210   10.5952   10.6018   10.6521   
      17   11     120   7.09e-04   3.7351*  4.4108*  5.0415*  5.1526*  5.9240*  6.0959*  6.4063*  8.0882*  8.1695*  8.2423   8.3252   9.0940   9.1271   9.1957   9.2070   9.2328   9.6105   9.7273   9.8879*  9.9665*  10.0036   10.1080   10.1262   10.2563   10.2821   10.3255   10.3286   10.5066   10.5293   10.6019   
      18   12     49    3.03e-04   3.7351*  4.4108*  5.0415*  5.1527*  5.9240*  6.0959*  6.4063*  8.0882*  8.1693*  8.2382   8.3179   9.0734   9.0950   9.1519   9.2058*  9.2267   9.5501   9.6686   9.8874*  9.9666   9.9698   10.0662   10.1139   10.1717   10.1889   10.3203   10.3268   10.4047   10.5196*  10.5988   
      19   12     67    3.88e-04   3.7351*  4.4108*  5.0416*  5.1526*  5.9240*  6.0959*  6.4064*  8.0882*  8.1693*  8.2348   8.3116   9.0530   9.0670   9.1125   9.2046*  9.2229   9.4860   9.6111   9.8868   9.9337   9.9662*  10.0130   10.0897   10.1078   10.1409   10.2819   10.3213   10.3294   10.5198*  10.5966   
      20   12     85    2.61e-04   3.7350*  4.4108*  5.0415*  5.1526*  5.9240*  6.0959*  6.4063*  8.0882*  8.1692*  8.2331   8.3071   9.0359   9.0510   9.0859   9.2043*  9.2212   9.4396   9.5646   9.8826   9.9003   9.9666   9.9778   10.0319   10.0732   10.1170   10.1708   10.3198   10.3262*  10.5195*  10.5948   
      21   12     103   3.00e-04   3.7350*  4.4108*  5.0415*  5.1526*  5.9240*  6.0959*  6.4063*  8.0882*  8.1692*  8.2324   8.3045   9.0208   9.0430   9.0705   9.2037*  9.2201*  9.4134   9.5263   9.8531   9.8901   9.9483   9.9507   9.9667   10.0171   10.0840   10.1149   10.3157   10.3264*  10.5171   10.5933   
      22   11     120   8.51e-04   3.7350*  4.4108*  5.0415*  5.1526*  5.9240*  6.0959*  6.4063*  8.0882*  8.1692*  8.2321*  8.3033   9.0032   9.0329   9.0600   9.2033*  9.2193   9.3692   9.4408   9.4998   9.8554   9.8893   9.9284   9.9666   9.9803   10.0164   10.1107   10.1842   10.3198   10.3256   10.3572   
      23   14     49    3.05e-04   3.7350*  4.4108*  5.0415*  5.1526*  5.9240*  6.0959*  6.4063*  8.0881*  8.1692*  8.2320*  8.3029*  8.9471   9.0206   9.0531   9.1466   9.2034*  9.2208   9.3988   9.4888   9.8442   9.8880*  9.9133   9.9623   9.9696   9.9863   10.1094   10.1303   10.2071   10.3202   10.3260*  
      24   14     65    4.61e-04   3.7351*  4.4108*  5.0415*  5.1525*  5.9240*  6.0959*  6.4063*  8.0882*  8.1691*  8.2320*  8.3027*  8.6293   9.0106   9.0464   9.0746   9.2033*  9.2199*  9.3915   9.4816   9.8344   9.8881   9.8966   9.9479   9.9625   9.9673   10.0872   10.1175   10.1262   10.3184   10.3255*  
      25   14     81    2.58e-04   3.7350*  4.4108*  5.0415*  5.1526*  5.9240*  6.0959*  6.4063*  8.0882*  8.1691*  8.2307   8.2496   8.3028   9.0059   9.0432   9.0659   9.2034*  9.2197*  9.3875   9.4762   9.8253   9.8797   9.8898   9.9210   9.9497   9.9671*  10.0642   10.0831   10.1156   10.3186*  10.3259*  
      26   18     97    9.63e-05   3.7350*  4.4108*  5.0415*  5.1526*  5.9240*  6.0959*  6.4063*  8.0829   8.0882*  8.1692*  8.2321*  8.3026*  9.0038   9.0422   9.0639   9.2034*  9.2197*  9.3862   9.4729   9.8161   9.8700   9.8883*  9.8954   9.9452   9.9667*  10.0489   10.0636   10.1151*  10.3180*  10.3256*  
      27   18     109   8.34e-05   3.7350*  4.4108*  5.0415*  5.1526*  5.9240*  6.0959*  6.4063*  8.0244   8.0882*  8.1692*  8.2321*  8.3025*  9.0026   9.0417*  9.0632   9.2033*  9.2196*  9.3853   9.4707   9.8038   9.8630   9.8713   9.8883*  9.9408   9.9667*  10.0373   10.0510   10.1148*  10.3173*  10.3253   
      28   17     120   1.76e-04   3.7350*  4.4108*  5.0415*  5.1526*  5.9240*  6.0959*  6.4063*  7.9960   8.0882*  8.1692*  8.2321*  8.3025*  9.0014   9.0415*  9.0627*  9.2033*  9.2196*  9.3845   9.4682   9.7602   9.8395   9.8557   9.8880*  9.9370   9.9667*  10.0254   10.0391   10.1139   10.1745   10.3172   
      29   20     43    5.38e-05   3.7350*  4.4108*  5.0415*  5.1526*  5.9240*  6.0959*  6.4063*  7.9897   8.0882*  8.1692*  8.2321*  8.3025*  9.0011*  9.0414*  9.0626*  9.2033*  9.2196*  9.3842*  9.4675*  9.7375   9.8321   9.8531   9.8880*  9.9340   9.9665*  10.0201   10.0337   10.1103   10.1150   10.3155   
      30   21     53    6.17e-05   3.7350*  4.4108*  5.0415*  5.1526*  5.9240*  6.0959*  6.4063*  7.9862   8.0882*  8.1692*  8.2321*  8.3025*  9.0009*  9.0414*  9.0625*  9.2033*  9.2196*  9.3841*  9.4671*  9.7229   9.8267   9.8511   9.8880*  9.9317   9.9665*  10.0158   10.0273   10.0719   10.1144*  10.3154   
      31   21     62    9.35e-05   3.7350*  4.4108*  5.0414*  5.1526*  5.9240*  6.0959*  6.4063*  7.9849   8.0882*  8.1692*  8.2321*  8.3025*  9.0008*  9.0414*  9.0625*  9.2033*  9.2196*  9.3840*  9.4669*  9.7084   9.8194   9.8500   9.8879*  9.9228   9.9664*  9.9991   10.0148   10.0413   10.1139*  10.3142   
      32   21     71    4.47e-04   3.7350*  4.4108*  5.0415*  5.1525*  5.9240*  6.0959*  6.4063*  7.9839   8.0882*  8.1692*  8.2321*  8.3025*  9.0008*  9.0414*  9.0625*  9.2033*  9.2196*  9.3839*  9.4668*  9.6459   9.7494   9.8478   9.8563   9.8881*  9.9470   9.9672*  10.0093   10.0305   10.1138*  10.3108   
Found complex roots...
      33   20     80    2.77e-04   3.7350*  4.4108*  5.0415*  5.1526*  5.9240*  6.0959*  6.4063*  7.9834   8.0881*  8.1692*  8.2321*  8.3025*  9.0008*  9.0414*  9.0625*  9.2032*  9.2196*  9.2999   9.3841*  9.4665*  9.7099   9.8355   9.8449   9.8879*  9.9385   9.9666*  9.9959   10.0241   10.1114   10.1349   
Found complex roots...
      34   17     90    6.38e-04   3.7351*  4.4108*  5.0415*  5.1526*  5.9240*  6.0959*  6.4063*  7.9832   8.0882*  8.1692*  8.2321*  8.3025*  9.0008*  9.0413*  9.0625*  9.0785   9.2033*  9.2196*  9.3839*  9.4664   9.6961   9.7718   9.8256   9.8738   9.8893   9.9282   9.9682   9.9682   10.0410   10.0679   
      35   19     102   4.51e-04   3.7350*  4.4108*  5.0415*  5.1526*  5.9240*  6.0959*  6.4063*  7.9829*  8.0882*  8.1692*  8.2321*  8.3025*  8.9511   9.0008*  9.0414*  9.0625*  9.2033*  9.2196*  9.3820   9.3859   9.4679   9.5165   9.7141   9.8340   9.8532   9.8882*  9.9378   9.9664*  10.0229   10.0291   
      36   20     113   2.16e-04   3.7350*  4.4108*  5.0415*  5.1526*  5.9240*  6.0959*  6.4063*  7.9828*  8.0882*  8.1692*  8.2321*  8.3025*  8.9029   9.0008*  9.0413*  9.0625*  9.2033   9.2048   9.2196*  9.3165   9.3839*  9.4667*  9.7056   9.8309   9.8507   9.8879*  9.9363   9.9669*  10.0149   10.0219   
      37   19     120   2.12e-04   3.7350*  4.4108*  5.0415*  5.1526*  5.9240*  6.0959*  6.4063*  7.9827*  8.0882*  8.1692*  8.2321*  8.3025*  8.8801   9.0007*  9.0413*  9.0624*  9.0769   9.2032   9.2036   9.2196*  9.3839*  9.4664*  9.7028   9.8270   9.8495   9.8880*  9.9325   9.9649   9.9760   10.0114   
      38   21     41    9.46e-05   3.7350*  4.4108*  5.0415*  5.1526*  5.9240*  6.0959*  6.4063*  7.9827*  8.0882*  8.1692*  8.2321*  8.3025*  8.8723   9.0007*  9.0156   9.0414*  9.0625*  9.1653   9.2033*  9.2196*  9.3838*  9.4663*  9.7017   9.8211   9.8488   9.8878*  9.8959   9.9407   9.9664*  10.0074   
      39   21     50    1.78e-04   3.7350*  4.4108*  5.0415*  5.1526*  5.9240*  6.0959*  6.4063*  7.9827*  8.0881*  8.1692*  8.2321*  8.3025*  8.8667   8.9654   9.0007*  9.0413*  9.0625*  9.1361   9.2033*  9.2196*  9.3838*  9.4663*  9.6999   9.7667   9.8395   9.8503   9.8880*  9.9376   9.9668*  10.0037   
      40   21     59    1.71e-04   3.7350*  4.4108*  5.0415*  5.1526*  5.9240*  6.0959*  6.4063*  7.9826*  8.0882*  8.1692*  8.2321*  8.3025*  8.8619   8.9277   9.0007*  9.0413*  9.0625*  9.1137   9.2033*  9.2196*  9.3838*  9.4662*  9.6309   9.7038   9.8340   9.8491   9.8879*  9.9368   9.9667*  10.0014   
      41   21     68    1.93e-04   3.7350*  4.4108*  5.0415*  5.1526*  5.9240*  6.0959*  6.4063*  7.9826*  8.0882*  8.1691*  8.2321*  8.3025*  8.8579   8.9077   9.0007*  9.0413*  9.0624*  9.0978   9.2033*  9.2196*  9.3836   9.4157   9.4664   9.7018   9.8311   9.8487*  9.8880*  9.9366*  9.9666*  9.9992   
      42   23     77    6.81e-05   3.7350*  4.4108*  5.0415*  5.1526*  5.9240*  6.0959*  6.4063*  7.9826*  8.0882*  8.1691*  8.2321*  8.3025*  8.8548   8.8948   9.0007*  9.0413*  9.0625*  9.0869   9.2032*  9.2195*  9.2302   9.3838*  9.4662*  9.7007   9.8301   9.8485*  9.8880*  9.9362*  9.9666*  9.9955   
      43   23     84    2.98e-04   3.7350*  4.4108*  5.0415*  5.1526*  5.9240*  6.0959*  6.4063*  7.9826*  8.0882*  8.1691*  8.2321*  8.3025*  8.8521   8.8870   9.0007*  9.0413*  9.0624*  9.0699   9.1080   9.2033*  9.2196*  9.3838*  9.4662*  9.6730   9.7108   9.8298   9.8486*  9.8879*  9.9360*  9.9665*  
      44   24     91    1.63e-04   3.7350*  4.4108*  5.0415*  5.1526*  5.9240*  6.0959*  6.4063*  7.9826*  8.0882*  8.1692*  8.2321*  8.3025*  8.8499   8.8826   9.0007*  9.0127   9.0413*  9.0624*  9.0852   9.2033*  9.2196*  9.3838*  9.4471   9.4662*  9.7019   9.8290*  9.8484*  9.8880*  9.9358*  9.9667*  
      45   25     97    8.75e-05   3.7351*  4.4108*  5.0415*  5.1526*  5.9240*  6.0959*  6.4063*  7.9826*  8.0882*  8.1692*  8.2321*  8.3024*  8.8480   8.8800   8.9772   9.0007*  9.0413*  9.0624*  9.0811   9.2033*  9.2196*  9.3169   9.3838*  9.4661*  9.7014*  9.8287*  9.8483*  9.8879*  9.9356*  9.9664*  
      46   25     102   4.77e-05   3.7351*  4.4108*  5.0415*  5.1526*  5.9240*  6.0959*  6.4063*  7.9826*  8.0882*  8.1692*  8.2321*  8.3024*  8.8465   8.8786   8.9583   9.0007*  9.0413*  9.0624*  9.0791   9.2033*  9.2196*  9.2432   9.3838*  9.4661*  9.7011*  9.8284*  9.8483*  9.8879*  9.9356*  9.9664*  
      47   23     107   1.21e-04   3.7351*  4.4108*  5.0415*  5.1526*  5.9240*  6.0959*  6.4063*  7.9826*  8.0882*  8.1691*  8.2321*  8.3024*  8.8454   8.8777   8.9462   9.0007*  9.0413*  9.0624*  9.0775   9.2033*  9.2080   9.2196*  9.3838*  9.4661*  9.7010*  9.8283*  9.8482*  9.8879*  9.9346   9.9353   
      48   23     114   1.28e-04   3.7351*  4.4108*  5.0415*  5.1526*  5.9240*  6.0959*  6.4063*  7.9826*  8.0882*  8.1691*  8.2321*  8.3024*  8.8447   8.8772*  8.9393   9.0007*  9.0413*  9.0624*  9.0764   9.1919   9.2033*  9.2196*  9.3838*  9.4661*  9.7007   9.7773   9.8284   9.8483*  9.8879*  9.9353*  
Found complex roots...
      49   25     120   9.60e-05   3.7351*  4.4108*  5.0415*  5.1526*  5.9240*  6.0959*  6.4063*  7.9826*  8.0882*  8.1691*  8.2321*  8.3024*  8.8443*  8.8769*  8.9350   9.0007*  9.0413*  9.0624*  9.0757   9.1825   9.2033*  9.2196*  9.3838*  9.4661*  9.6183   9.7014   9.8282*  9.8482*  9.8879*  9.9351*  
      50   27     35    3.50e-05   3.7351*  4.4108*  5.0415*  5.1526*  5.9240*  6.0959*  6.4063*  7.9826*  8.0882*  8.1691*  8.2321*  8.3024*  8.8441*  8.8768*  8.9331   9.0007*  9.0413*  9.0624*  9.0754*  9.1789   9.2033*  9.2196*  9.3838*  9.4661*  9.5561   9.7012*  9.8281*  9.8482*  9.8879*  9.9352*  
      51   27     38    4.39e-05   3.7351*  4.4108*  5.0415*  5.1526*  5.9240*  6.0959*  6.4063*  7.9826*  8.0882*  8.1691*  8.2321*  8.3024*  8.8440*  8.8768*  8.9319   9.0007*  9.0413*  9.0624*  9.0752*  9.1763   9.2033*  9.2196*  9.3838*  9.4661*  9.5039   9.7011*  9.8281*  9.8482*  9.8879*  9.9351*  
      52   27     41    2.82e-05   3.7351*  4.4108*  5.0415*  5.1526*  5.9240*  6.0959*  6.4063*  7.9826*  8.0882*  8.1692*  8.2321*  8.3024*  8.8439*  8.8768*  8.9308   9.0007*  9.0413*  9.0624*  9.0750*  9.1741   9.2033*  9.2196*  9.3838*  9.4599   9.4661*  9.7011*  9.8281*  9.8482*  9.8879*  9.9351*  
      53   27     44    2.17e-05   3.7351*  4.4108*  5.0415*  5.1526*  5.9240*  6.0959*  6.4063*  7.9826*  8.0882*  8.1691*  8.2321*  8.3024*  8.8439*  8.8767*  8.9300   9.0007*  9.0413*  9.0624*  9.0749*  9.1730   9.2033*  9.2196*  9.3838*  9.4330   9.4661*  9.7010*  9.8280*  9.8482*  9.8879*  9.9351*  
      54   27     47    1.64e-05   3.7351*  4.4108*  5.0415*  5.1526*  5.9240*  6.0959*  6.4063*  7.9826*  8.0881*  8.1692*  8.2321*  8.3024*  8.8438*  8.8767*  8.9296   9.0007*  9.0413*  9.0624*  9.0748*  9.1723   9.2033*  9.2196*  9.3838*  9.4145   9.4661*  9.7010*  9.8280*  9.8482*  9.8879*  9.9351*  
      55   27     50    1.27e-05   3.7351*  4.4108*  5.0415*  5.1526*  5.9240*  6.0959*  6.4063*  7.9826*  8.0882*  8.1692*  8.2321*  8.3024*  8.8438*  8.8767*  8.9293   9.0007*  9.0413*  9.0624*  9.0747*  9.1709   9.2033*  9.2196*  9.3838*  9.4002   9.4661*  9.7010*  9.8280*  9.8482*  9.8879*  9.9351*  
      56   27     53    8.20e-06   3.7351*  4.4108*  5.0415*  5.1526*  5.9240*  6.0959*  6.4063*  7.9826*  8.0882*  8.1692*  8.2321*  8.3024*  8.8438*  8.8767*  8.9290   9.0007*  9.0413*  9.0624*  9.0747*  9.1699   9.2033*  9.2196*  9.3838*  9.3895   9.4661*  9.7010*  9.8280*  9.8482*  9.8879*  9.9351*  
      57   27     56    5.26e-06   3.7350*  4.4108*  5.0415*  5.1526*  5.9240*  6.0959*  6.4063*  7.9826*  8.0882*  8.1692*  8.2321*  8.3024*  8.8438*  8.8767*  8.9289   9.0007*  9.0413*  9.0624*  9.0746*  9.1690   9.2033*  9.2196*  9.3827   9.3838*  9.4661*  9.7010*  9.8280*  9.8482*  9.8879*  9.9350*  
      58   28     59    3.24e-06   3.7350*  4.4108*  5.0415*  5.1526*  5.9240*  6.0959*  6.4063*  7.9826*  8.0882*  8.1692*  8.2321*  8.3024*  8.8437*  8.8767*  8.9287*  9.0007*  9.0413*  9.0624*  9.0746*  9.1684   9.2033*  9.2196*  9.3790   9.3838*  9.4661*  9.7010*  9.8280*  9.8482*  9.8879*  9.9350*  
      59   28     61    3.16e-06   3.7350*  4.4108*  5.0415*  5.1526*  5.9240*  6.0959*  6.4063*  7.9826*  8.0882*  8.1691*  8.2321*  8.3024*  8.8437*  8.8767*  8.9287   9.0007*  9.0413*  9.0624*  9.0746*  9.1680*  9.2033*  9.2196*  9.3764   9.3838*  9.4661*  9.7010*  9.8280*  9.8482*  9.8879*  9.9350*  

     Max Davidson iteration exhausted

 EOMIP transition 1/A
 Total energy = -3049.45339885 a.u.  Excitation energy = 3.7350 eV.
 R1^2 = 0.8714  R2^2 = 0.1286  Res^2 = 2.23e-07
 Conv-d = yes

 Amplitude    Transitions between orbitals
 -0.8030       115 (A) A                 ->    infty        
  0.2887       108 (A) A                 ->    infty        
 -0.2614       100 (A) A                 ->    infty        
 -0.1283       106 (A) A                 ->    infty        
  0.1159       101 (A) A                 ->    infty        
  0.1023       105 (A) A                 ->    infty        

              Summary of significant orbitals:

               Number  Type             Irrep      Energy
               100     Occ  Alpha     100 (A)     -0.4511
               101     Occ  Alpha     101 (A)     -0.4474
               105     Occ  Alpha     105 (A)     -0.4087
               106     Occ  Alpha     106 (A)     -0.4059
               108     Occ  Alpha     108 (A)     -0.3955
               115     Occ  Alpha     115 (A)     -0.2367


 EOMIP transition 2/A
 Total energy = -3049.42856474 a.u.  Excitation energy = 4.4108 eV.
 R1^2 = 0.9290  R2^2 = 0.0710  Res^2 = 5.01e-07
 Conv-d = yes

 Amplitude    Transitions between orbitals
 -0.9541       116 (A) A                 ->    infty        
 -0.0837       106 (A) A                 ->    infty        
 -0.0594       107 (A) A                 ->    infty        
  0.0447       109 (A) A                 ->    infty        

              Summary of significant orbitals:

               Number  Type             Irrep      Energy
               106     Occ  Alpha     106 (A)     -0.4059
               107     Occ  Alpha     107 (A)     -0.3977
               109     Occ  Alpha     109 (A)     -0.3546
               116     Occ  Alpha     116 (A)     -0.2242


 EOMIP transition 3/A
 Total energy = -3049.40538848 a.u.  Excitation energy = 5.0415 eV.
 R1^2 = 0.8405  R2^2 = 0.1595  Res^2 = 5.54e-07
 Conv-d = yes

 Amplitude    Transitions between orbitals
  0.4979       114 (A) A                 ->    infty        
 -0.4422       105 (A) A                 ->    infty        
 -0.3448       107 (A) A                 ->    infty        
  0.3004       109 (A) A                 ->    infty        
 -0.2199       106 (A) A                 ->    infty        
  0.1748       112 (A) A                 ->    infty        
  0.1651       110 (A) A                 ->    infty        
  0.1400       108 (A) A                 ->    infty        

              Summary of significant orbitals:

               Number  Type             Irrep      Energy
               105     Occ  Alpha     105 (A)     -0.4087
               106     Occ  Alpha     106 (A)     -0.4059
               107     Occ  Alpha     107 (A)     -0.3977
               108     Occ  Alpha     108 (A)     -0.3955
               109     Occ  Alpha     109 (A)     -0.3546
               110     Occ  Alpha     110 (A)     -0.3523
               112     Occ  Alpha     112 (A)     -0.3435
               114     Occ  Alpha     114 (A)     -0.2678


 EOMIP transition 4/A
 Total energy = -3049.40130518 a.u.  Excitation energy = 5.1526 eV.
 R1^2 = 0.8378  R2^2 = 0.1622  Res^2 = 2.50e-07
 Conv-d = yes

 Amplitude    Transitions between orbitals
  0.4850       113 (A) A                 ->    infty        
 -0.4730       106 (A) A                 ->    infty        
 -0.3297       108 (A) A                 ->    infty        
 -0.3006       110 (A) A                 ->    infty        
  0.2184       105 (A) A                 ->    infty        
  0.1579       109 (A) A                 ->    infty        
  0.1344       99 (A) A                  ->    infty        
  0.1242       102 (A) A                 ->    infty        
  0.1234       116 (A) A                 ->    infty        
 -0.1006       107 (A) A                 ->    infty        

              Summary of significant orbitals:

               Number  Type             Irrep      Energy
               99      Occ  Alpha      99 (A)     -0.4644
               102     Occ  Alpha     102 (A)     -0.4409
               105     Occ  Alpha     105 (A)     -0.4087
               106     Occ  Alpha     106 (A)     -0.4059
               107     Occ  Alpha     107 (A)     -0.3977
               108     Occ  Alpha     108 (A)     -0.3955
               109     Occ  Alpha     109 (A)     -0.3546
               110     Occ  Alpha     110 (A)     -0.3523
               113     Occ  Alpha     113 (A)     -0.2873
               116     Occ  Alpha     116 (A)     -0.2242


 EOMIP transition 5/A
 Total energy = -3049.37295494 a.u.  Excitation energy = 5.9240 eV.
 R1^2 = 0.9088  R2^2 = 0.0912  Res^2 = 4.21e-07
 Conv-d = yes

 Amplitude    Transitions between orbitals
  0.8264       114 (A) A                 ->    infty        
 -0.2322       109 (A) A                 ->    infty        
  0.2270       107 (A) A                 ->    infty        
  0.2165       105 (A) A                 ->    infty        
  0.1636       106 (A) A                 ->    infty        
 -0.1143       112 (A) A                 ->    infty        

              Summary of significant orbitals:

               Number  Type             Irrep      Energy
               105     Occ  Alpha     105 (A)     -0.4087
               106     Occ  Alpha     106 (A)     -0.4059
               107     Occ  Alpha     107 (A)     -0.3977
               109     Occ  Alpha     109 (A)     -0.3546
               112     Occ  Alpha     112 (A)     -0.3435
               114     Occ  Alpha     114 (A)     -0.2678


 EOMIP transition 6/A
 Total energy = -3049.36663766 a.u.  Excitation energy = 6.0959 eV.
 R1^2 = 0.8502  R2^2 = 0.1498  Res^2 = 3.26e-08
 Conv-d = yes

 Amplitude    Transitions between orbitals
  0.5595       115 (A) A                 ->    infty        
  0.4071       108 (A) A                 ->    infty        
 -0.3798       100 (A) A                 ->    infty        
 -0.2176       106 (A) A                 ->    infty        
  0.2130       105 (A) A                 ->    infty        
 -0.1721       110 (A) A                 ->    infty        
  0.1689       101 (A) A                 ->    infty        
  0.1288       107 (A) A                 ->    infty        
  0.1263       112 (A) A                 ->    infty        
  0.1088       111 (A) A                 ->    infty        

              Summary of significant orbitals:

               Number  Type             Irrep      Energy
               100     Occ  Alpha     100 (A)     -0.4511
               101     Occ  Alpha     101 (A)     -0.4474
               105     Occ  Alpha     105 (A)     -0.4087
               106     Occ  Alpha     106 (A)     -0.4059
               107     Occ  Alpha     107 (A)     -0.3977
               108     Occ  Alpha     108 (A)     -0.3955
               110     Occ  Alpha     110 (A)     -0.3523
               111     Occ  Alpha     111 (A)     -0.3465
               112     Occ  Alpha     112 (A)     -0.3435
               115     Occ  Alpha     115 (A)     -0.2367


 EOMIP transition 7/A
 Total energy = -3049.35523182 a.u.  Excitation energy = 6.4063 eV.
 R1^2 = 0.9119  R2^2 = 0.0881  Res^2 = 4.26e-07
 Conv-d = yes

 Amplitude    Transitions between orbitals
  0.8284       113 (A) A                 ->    infty        
  0.2735       110 (A) A                 ->    infty        
  0.2305       108 (A) A                 ->    infty        
  0.2215       106 (A) A                 ->    infty        
 -0.1364       105 (A) A                 ->    infty        

              Summary of significant orbitals:

               Number  Type             Irrep      Energy
               105     Occ  Alpha     105 (A)     -0.4087
               106     Occ  Alpha     106 (A)     -0.4059
               108     Occ  Alpha     108 (A)     -0.3955
               110     Occ  Alpha     110 (A)     -0.3523
               113     Occ  Alpha     113 (A)     -0.2873


 EOMIP transition 8/A
 Total energy = -3049.29730596 a.u.  Excitation energy = 7.9826 eV.
 R1^2 = 0.0000  R2^2 = 1.0000  Res^2 = 3.06e-06
 Conv-d = yes

 Amplitude    Transitions between orbitals
 -0.1468       108 (A) A     116 (A) A   ->    158 (A) A    
  0.1468       116 (A) A     108 (A) A   ->    158 (A) A    
  0.1467       108 (A) A     116 (A) B   ->    158 (A) B    
 -0.1467       116 (A) B     108 (A) A   ->    158 (A) B    
 -0.1467       116 (A) A     108 (A) B   ->    158 (A) B    
  0.1467       108 (A) B     116 (A) A   ->    158 (A) B    
 -0.1380       100 (A) A     116 (A) B   ->    158 (A) B    
  0.1380       116 (A) B     100 (A) A   ->    158 (A) B    
  0.1380       100 (A) A     116 (A) A   ->    158 (A) A    
 -0.1380       116 (A) A     100 (A) A   ->    158 (A) A    
  0.1380       116 (A) A     100 (A) B   ->    158 (A) B    
 -0.1380       100 (A) B     116 (A) A   ->    158 (A) B    
 -0.1194       108 (A) A     116 (A) A   ->    155 (A) A    
  0.1194       116 (A) A     108 (A) A   ->    155 (A) A    
 -0.1193       116 (A) A     108 (A) B   ->    155 (A) B    
  0.1193       108 (A) B     116 (A) A   ->    155 (A) B    
  0.1192       108 (A) A     116 (A) B   ->    155 (A) B    
 -0.1192       116 (A) B     108 (A) A   ->    155 (A) B    
  0.1130       100 (A) A     116 (A) A   ->    155 (A) A    
 -0.1130       116 (A) A     100 (A) A   ->    155 (A) A    
 -0.1129       100 (A) A     116 (A) B   ->    155 (A) B    
  0.1129       116 (A) B     100 (A) A   ->    155 (A) B    
  0.1129       116 (A) A     100 (A) B   ->    155 (A) B    
 -0.1129       100 (A) B     116 (A) A   ->    155 (A) B    
  0.1045       116 (A) A     115 (A) B   ->    158 (A) B    
 -0.1045       115 (A) B     116 (A) A   ->    158 (A) B    
  0.1044       115 (A) A     116 (A) A   ->    158 (A) A    
 -0.1044       116 (A) A     115 (A) A   ->    158 (A) A    
 -0.1044       115 (A) A     116 (A) B   ->    158 (A) B    
  0.1044       116 (A) B     115 (A) A   ->    158 (A) B    

              Summary of significant orbitals:

               Number  Type             Irrep      Energy
               100     Occ  Alpha     100 (A)     -0.4511
               108     Occ  Alpha     108 (A)     -0.3955
               115     Occ  Alpha     115 (A)     -0.2367
               116     Occ  Alpha     116 (A)     -0.2242
               100     Occ  Beta      100 (A)     -0.4511
               108     Occ  Beta      108 (A)     -0.3955
               115     Occ  Beta      115 (A)     -0.2367
               116     Occ  Beta      116 (A)     -0.2242
               155     Vir  Alpha     155 (A)      0.3908
               158     Vir  Alpha     158 (A)      0.4054
               155     Vir  Beta      155 (A)      0.3908
               158     Vir  Beta      158 (A)      0.4054


 EOMIP transition 9/A
 Total energy = -3049.29342429 a.u.  Excitation energy = 8.0882 eV.
 R1^2 = 0.9251  R2^2 = 0.0749  Res^2 = 1.03e-06
 Conv-d = yes

 Amplitude    Transitions between orbitals
 -0.8705       112 (A) A                 ->    infty        
  0.3174       111 (A) A                 ->    infty        
 -0.1565       105 (A) A                 ->    infty        
 -0.1197       110 (A) A                 ->    infty        
  0.1066       108 (A) A                 ->    infty        

              Summary of significant orbitals:

               Number  Type             Irrep      Energy
               105     Occ  Alpha     105 (A)     -0.4087
               108     Occ  Alpha     108 (A)     -0.3955
               110     Occ  Alpha     110 (A)     -0.3523
               111     Occ  Alpha     111 (A)     -0.3465
               112     Occ  Alpha     112 (A)     -0.3435


 EOMIP transition 10/A
 Total energy = -3049.29044861 a.u.  Excitation energy = 8.1691 eV.
 R1^2 = 0.8984  R2^2 = 0.1016  Res^2 = 7.83e-08
 Conv-d = yes

 Amplitude    Transitions between orbitals
 -0.7535       111 (A) A                 ->    infty        
  0.3967       109 (A) A                 ->    infty        
 -0.3061       110 (A) A                 ->    infty        
 -0.1880       112 (A) A                 ->    infty        
  0.1387       106 (A) A                 ->    infty        
  0.1130       108 (A) A                 ->    infty        

              Summary of significant orbitals:

               Number  Type             Irrep      Energy
               106     Occ  Alpha     106 (A)     -0.4059
               108     Occ  Alpha     108 (A)     -0.3955
               109     Occ  Alpha     109 (A)     -0.3546
               110     Occ  Alpha     110 (A)     -0.3523
               111     Occ  Alpha     111 (A)     -0.3465
               112     Occ  Alpha     112 (A)     -0.3435


 EOMIP transition 11/A
 Total energy = -3049.28813493 a.u.  Excitation energy = 8.2321 eV.
 R1^2 = 0.0880  R2^2 = 0.9120  Res^2 = 3.65e-07
 Conv-d = yes

 Amplitude    Transitions between orbitals
 -0.1967       108 (A) A     116 (A) B   ->    158 (A) B    
  0.1967       116 (A) B     108 (A) A   ->    158 (A) B    
  0.1855       100 (A) A     116 (A) B   ->    158 (A) B    
 -0.1855       116 (A) B     100 (A) A   ->    158 (A) B    
 -0.1572       108 (A) A     116 (A) B   ->    155 (A) B    
  0.1572       116 (A) B     108 (A) A   ->    155 (A) B    
  0.1495       100 (A) A     116 (A) B   ->    155 (A) B    
 -0.1495       116 (A) B     100 (A) A   ->    155 (A) B    
  0.1257       108 (A) A     116 (A) B   ->    149 (A) B    
 -0.1257       116 (A) B     108 (A) A   ->    149 (A) B    
  0.1245       115 (A) A     116 (A) B   ->    158 (A) B    
 -0.1245       116 (A) B     115 (A) A   ->    158 (A) B    
  0.1217       108 (A) A     116 (A) B   ->    160 (A) B    
 -0.1217       116 (A) B     108 (A) A   ->    160 (A) B    
 -0.1181       100 (A) A     116 (A) B   ->    149 (A) B    
  0.1181       116 (A) B     100 (A) A   ->    149 (A) B    
 -0.1155       100 (A) A     116 (A) B   ->    160 (A) B    
  0.1155       116 (A) B     100 (A) A   ->    160 (A) B    
 -0.1119       108 (A) A     116 (A) B   ->    156 (A) B    
  0.1119       116 (A) B     108 (A) A   ->    156 (A) B    
 -0.1073       116 (A) A     108 (A) B   ->    158 (A) B    
  0.1073       108 (A) B     116 (A) A   ->    158 (A) B    
  0.1042       108 (A) A     116 (A) B   ->    148 (A) B    
 -0.1042       116 (A) B     108 (A) A   ->    148 (A) B    
 -0.1041       108 (A) A     116 (A) B   ->    159 (A) B    
  0.1041       116 (A) B     108 (A) A   ->    159 (A) B    
  0.1038       100 (A) A     116 (A) B   ->    156 (A) B    
 -0.1038       116 (A) B     100 (A) A   ->    156 (A) B    
  0.1021       115 (A) A     116 (A) B   ->    155 (A) B    
 -0.1021       116 (A) B     115 (A) A   ->    155 (A) B    
  0.1011       116 (A) A     100 (A) B   ->    158 (A) B    
 -0.1011       100 (A) B     116 (A) A   ->    158 (A) B    

              Summary of significant orbitals:

               Number  Type             Irrep      Energy
               100     Occ  Alpha     100 (A)     -0.4511
               108     Occ  Alpha     108 (A)     -0.3955
               115     Occ  Alpha     115 (A)     -0.2367
               116     Occ  Alpha     116 (A)     -0.2242
               100     Occ  Beta      100 (A)     -0.4511
               108     Occ  Beta      108 (A)     -0.3955
               116     Occ  Beta      116 (A)     -0.2242
               148     Vir  Beta      148 (A)      0.3560
               149     Vir  Beta      149 (A)      0.3576
               155     Vir  Beta      155 (A)      0.3908
               156     Vir  Beta      156 (A)      0.3982
               158     Vir  Beta      158 (A)      0.4054
               159     Vir  Beta      159 (A)      0.4091
               160     Vir  Beta      160 (A)      0.4124


 EOMIP transition 12/A
 Total energy = -3049.28555002 a.u.  Excitation energy = 8.3024 eV.
 R1^2 = 0.0011  R2^2 = 0.9989  Res^2 = 2.05e-07
 Conv-d = yes

 Amplitude    Transitions between orbitals
 -0.2180       115 (A) A     115 (A) B   ->    158 (A) B    
  0.2180       115 (A) B     115 (A) A   ->    158 (A) B    
  0.1895       108 (A) A     115 (A) B   ->    158 (A) B    
 -0.1895       115 (A) B     108 (A) A   ->    158 (A) B    
 -0.1842       115 (A) A     115 (A) B   ->    155 (A) B    
  0.1842       115 (A) B     115 (A) A   ->    155 (A) B    
 -0.1746       100 (A) A     115 (A) B   ->    158 (A) B    
  0.1746       115 (A) B     100 (A) A   ->    158 (A) B    
  0.1559       108 (A) A     115 (A) B   ->    155 (A) B    
 -0.1559       115 (A) B     108 (A) A   ->    155 (A) B    
 -0.1453       100 (A) A     115 (A) B   ->    155 (A) B    
  0.1453       115 (A) B     100 (A) A   ->    155 (A) B    
  0.1424       115 (A) A     115 (A) B   ->    149 (A) B    
 -0.1424       115 (A) B     115 (A) A   ->    149 (A) B    
  0.1386       115 (A) A     115 (A) B   ->    160 (A) B    
 -0.1386       115 (A) B     115 (A) A   ->    160 (A) B    
  0.1372       115 (A) A     108 (A) B   ->    158 (A) B    
 -0.1372       108 (A) B     115 (A) A   ->    158 (A) B    
 -0.1240       115 (A) A     100 (A) B   ->    158 (A) B    
  0.1240       100 (A) B     115 (A) A   ->    158 (A) B    
 -0.1210       108 (A) A     115 (A) B   ->    149 (A) B    
  0.1210       115 (A) B     108 (A) A   ->    149 (A) B    
 -0.1206       115 (A) A     115 (A) B   ->    159 (A) B    
  0.1206       115 (A) B     115 (A) A   ->    159 (A) B    
 -0.1194       108 (A) A     115 (A) B   ->    160 (A) B    
  0.1194       115 (A) B     108 (A) A   ->    160 (A) B    
  0.1158       115 (A) A     115 (A) B   ->    148 (A) B    
 -0.1158       115 (A) B     115 (A) A   ->    148 (A) B    
 -0.1122       115 (A) A     115 (A) B   ->    156 (A) B    
  0.1122       115 (A) B     115 (A) A   ->    156 (A) B    
  0.1120       115 (A) A     108 (A) B   ->    155 (A) B    
 -0.1120       108 (A) B     115 (A) A   ->    155 (A) B    
  0.1110       100 (A) A     115 (A) B   ->    149 (A) B    
 -0.1110       115 (A) B     100 (A) A   ->    149 (A) B    
  0.1110       100 (A) A     115 (A) B   ->    160 (A) B    
 -0.1110       115 (A) B     100 (A) A   ->    160 (A) B    
  0.1027       108 (A) A     115 (A) B   ->    159 (A) B    
 -0.1027       115 (A) B     108 (A) A   ->    159 (A) B    
 -0.1024       115 (A) A     100 (A) B   ->    155 (A) B    
  0.1024       100 (A) B     115 (A) A   ->    155 (A) B    
  0.1015       108 (A) A     115 (A) B   ->    156 (A) B    
 -0.1015       115 (A) B     108 (A) A   ->    156 (A) B    

              Summary of significant orbitals:

               Number  Type             Irrep      Energy
               100     Occ  Alpha     100 (A)     -0.4511
               108     Occ  Alpha     108 (A)     -0.3955
               115     Occ  Alpha     115 (A)     -0.2367
               100     Occ  Beta      100 (A)     -0.4511
               108     Occ  Beta      108 (A)     -0.3955
               115     Occ  Beta      115 (A)     -0.2367
               148     Vir  Beta      148 (A)      0.3560
               149     Vir  Beta      149 (A)      0.3576
               155     Vir  Beta      155 (A)      0.3908
               156     Vir  Beta      156 (A)      0.3982
               158     Vir  Beta      158 (A)      0.4054
               159     Vir  Beta      159 (A)      0.4091
               160     Vir  Beta      160 (A)      0.4124


 EOMIP transition 13/A
 Total energy = -3049.26565825 a.u.  Excitation energy = 8.8437 eV.
 R1^2 = 0.0000  R2^2 = 1.0000  Res^2 = 1.91e-06
 Conv-d = yes

 Amplitude    Transitions between orbitals
 -0.1269       106 (A) A     116 (A) B   ->    156 (A) B    
  0.1269       116 (A) B     106 (A) A   ->    156 (A) B    
  0.1269       116 (A) A     106 (A) B   ->    156 (A) B    
 -0.1269       106 (A) B     116 (A) A   ->    156 (A) B    
  0.1269       106 (A) A     116 (A) A   ->    156 (A) A    
 -0.1269       116 (A) A     106 (A) A   ->    156 (A) A    
  0.1040       105 (A) A     116 (A) A   ->    155 (A) A    
 -0.1040       116 (A) A     105 (A) A   ->    155 (A) A    
 -0.1033       105 (A) A     116 (A) B   ->    155 (A) B    
  0.1033       116 (A) B     105 (A) A   ->    155 (A) B    
  0.1030       116 (A) A     105 (A) B   ->    155 (A) B    
 -0.1030       105 (A) B     116 (A) A   ->    155 (A) B    

              Summary of significant orbitals:

               Number  Type             Irrep      Energy
               105     Occ  Alpha     105 (A)     -0.4087
               106     Occ  Alpha     106 (A)     -0.4059
               116     Occ  Alpha     116 (A)     -0.2242
               105     Occ  Beta      105 (A)     -0.4087
               106     Occ  Beta      106 (A)     -0.4059
               116     Occ  Beta      116 (A)     -0.2242
               155     Vir  Alpha     155 (A)      0.3908
               156     Vir  Alpha     156 (A)      0.3982
               155     Vir  Beta      155 (A)      0.3908
               156     Vir  Beta      156 (A)      0.3982


 EOMIP transition 14/A
 Total energy = -3049.26444708 a.u.  Excitation energy = 8.8767 eV.
 R1^2 = 0.0000  R2^2 = 1.0000  Res^2 = 2.39e-06
 Conv-d = yes

 Amplitude    Transitions between orbitals
 -0.1476       108 (A) A     115 (A) A   ->    158 (A) A    
  0.1476       115 (A) A     108 (A) A   ->    158 (A) A    
  0.1476       108 (A) A     115 (A) B   ->    158 (A) B    
 -0.1476       115 (A) B     108 (A) A   ->    158 (A) B    
 -0.1475       115 (A) A     108 (A) B   ->    158 (A) B    
  0.1475       108 (A) B     115 (A) A   ->    158 (A) B    
 -0.1303       115 (A) A     108 (A) B   ->    155 (A) B    
  0.1303       108 (A) B     115 (A) A   ->    155 (A) B    
 -0.1303       108 (A) A     115 (A) A   ->    155 (A) A    
  0.1303       115 (A) A     108 (A) A   ->    155 (A) A    
  0.1297       108 (A) A     115 (A) B   ->    155 (A) B    
 -0.1297       115 (A) B     108 (A) A   ->    155 (A) B    
  0.1074       100 (A) A     115 (A) A   ->    158 (A) A    
 -0.1074       115 (A) A     100 (A) A   ->    158 (A) A    
 -0.1073       100 (A) A     115 (A) B   ->    158 (A) B    
  0.1073       115 (A) B     100 (A) A   ->    158 (A) B    
  0.1071       115 (A) A     100 (A) B   ->    158 (A) B    
 -0.1071       100 (A) B     115 (A) A   ->    158 (A) B    

              Summary of significant orbitals:

               Number  Type             Irrep      Energy
               100     Occ  Alpha     100 (A)     -0.4511
               108     Occ  Alpha     108 (A)     -0.3955
               115     Occ  Alpha     115 (A)     -0.2367
               100     Occ  Beta      100 (A)     -0.4511
               108     Occ  Beta      108 (A)     -0.3955
               115     Occ  Beta      115 (A)     -0.2367
               155     Vir  Alpha     155 (A)      0.3908
               158     Vir  Alpha     158 (A)      0.4054
               155     Vir  Beta      155 (A)      0.3908
               158     Vir  Beta      158 (A)      0.4054


 EOMIP transition 15/A
 Total energy = -3049.26253640 a.u.  Excitation energy = 8.9287 eV.
 R1^2 = 0.0000  R2^2 = 1.0000  Res^2 = 1.01e-05
 Conv-d = no

 Amplitude    Transitions between orbitals
  0.1175       116 (A) A     106 (A) B   ->    156 (A) B    
 -0.1175       106 (A) B     116 (A) A   ->    156 (A) B    
 -0.1174       106 (A) A     116 (A) B   ->    156 (A) B    
  0.1174       116 (A) B     106 (A) A   ->    156 (A) B    
  0.1168       106 (A) A     116 (A) A   ->    156 (A) A    
 -0.1168       116 (A) A     106 (A) A   ->    156 (A) A    

              Summary of significant orbitals:

               Number  Type             Irrep      Energy
               106     Occ  Alpha     106 (A)     -0.4059
               116     Occ  Alpha     116 (A)     -0.2242
               106     Occ  Beta      106 (A)     -0.4059
               116     Occ  Beta      116 (A)     -0.2242
               156     Vir  Alpha     156 (A)      0.3982
               156     Vir  Beta      156 (A)      0.3982


 EOMIP transition 16/A
 Total energy = -3049.25988837 a.u.  Excitation energy = 9.0007 eV.
 R1^2 = 0.0086  R2^2 = 0.9914  Res^2 = 1.07e-07
 Conv-d = yes

 Amplitude    Transitions between orbitals
  0.2422       106 (A) A     116 (A) B   ->    156 (A) B    
 -0.2422       116 (A) B     106 (A) A   ->    156 (A) B    
  0.1538       105 (A) A     116 (A) B   ->    155 (A) B    
 -0.1538       116 (A) B     105 (A) A   ->    155 (A) B    
 -0.1377       106 (A) A     116 (A) B   ->    154 (A) B    
  0.1377       116 (A) B     106 (A) A   ->    154 (A) B    
  0.1331       106 (A) A     116 (A) B   ->    158 (A) B    
 -0.1331       116 (A) B     106 (A) A   ->    158 (A) B    
  0.1262       116 (A) A     106 (A) B   ->    156 (A) B    
 -0.1262       106 (A) B     116 (A) A   ->    156 (A) B    
 -0.1222       106 (A) A     116 (A) B   ->    172 (A) B    
  0.1222       116 (A) B     106 (A) A   ->    172 (A) B    
  0.1161       106 (A) A     116 (A) A   ->    156 (A) A    
 -0.1161       116 (A) A     106 (A) A   ->    156 (A) A    
  0.1100       107 (A) A     116 (A) B   ->    158 (A) B    
 -0.1100       116 (A) B     107 (A) A   ->    158 (A) B    

              Summary of significant orbitals:

               Number  Type             Irrep      Energy
               105     Occ  Alpha     105 (A)     -0.4087
               106     Occ  Alpha     106 (A)     -0.4059
               107     Occ  Alpha     107 (A)     -0.3977
               116     Occ  Alpha     116 (A)     -0.2242
               106     Occ  Beta      106 (A)     -0.4059
               116     Occ  Beta      116 (A)     -0.2242
               156     Vir  Alpha     156 (A)      0.3982
               154     Vir  Beta      154 (A)      0.3854
               155     Vir  Beta      155 (A)      0.3908
               156     Vir  Beta      156 (A)      0.3982
               158     Vir  Beta      158 (A)      0.4054
               172     Vir  Beta      172 (A)      0.4879


 EOMIP transition 17/A
 Total energy = -3049.25839712 a.u.  Excitation energy = 9.0413 eV.
 R1^2 = 0.0021  R2^2 = 0.9979  Res^2 = 6.91e-07
 Conv-d = yes

 Amplitude    Transitions between orbitals
  0.1881       116 (A) A     108 (A) B   ->    158 (A) B    
 -0.1881       108 (A) B     116 (A) A   ->    158 (A) B    
 -0.1569       116 (A) A     100 (A) B   ->    158 (A) B    
  0.1569       100 (A) B     116 (A) A   ->    158 (A) B    
  0.1547       116 (A) A     108 (A) B   ->    155 (A) B    
 -0.1547       108 (A) B     116 (A) A   ->    155 (A) B    
 -0.1534       108 (A) A     116 (A) A   ->    158 (A) A    
  0.1534       116 (A) A     108 (A) A   ->    158 (A) A    
  0.1486       100 (A) A     116 (A) A   ->    158 (A) A    
 -0.1486       116 (A) A     100 (A) A   ->    158 (A) A    
 -0.1257       116 (A) A     100 (A) B   ->    155 (A) B    
  0.1257       100 (A) B     116 (A) A   ->    155 (A) B    
  0.1244       100 (A) A     116 (A) A   ->    155 (A) A    
 -0.1244       116 (A) A     100 (A) A   ->    155 (A) A    
 -0.1234       108 (A) A     116 (A) A   ->    155 (A) A    
  0.1234       116 (A) A     108 (A) A   ->    155 (A) A    
 -0.1209       116 (A) A     108 (A) B   ->    149 (A) B    
  0.1209       108 (A) B     116 (A) A   ->    149 (A) B    
  0.1189       115 (A) A     116 (A) A   ->    158 (A) A    
 -0.1189       116 (A) A     115 (A) A   ->    158 (A) A    
 -0.1182       116 (A) A     108 (A) B   ->    160 (A) B    
  0.1182       108 (A) B     116 (A) A   ->    160 (A) B    
 -0.1092       116 (A) A     115 (A) B   ->    158 (A) B    
  0.1092       115 (A) B     116 (A) A   ->    158 (A) B    
  0.1032       115 (A) A     116 (A) A   ->    155 (A) A    
 -0.1032       116 (A) A     115 (A) A   ->    155 (A) A    
  0.1019       116 (A) A     108 (A) B   ->    159 (A) B    
 -0.1019       108 (A) B     116 (A) A   ->    159 (A) B    
  0.1017       116 (A) A     108 (A) B   ->    156 (A) B    
 -0.1017       108 (A) B     116 (A) A   ->    156 (A) B    
 -0.1002       116 (A) A     108 (A) B   ->    148 (A) B    
  0.1002       108 (A) B     116 (A) A   ->    148 (A) B    

[...]
   298    6.137215021757e-03
   299    4.211206997980e-01
   300    1.293805070569e-01
   301   -2.143531775382e-02
   302   -5.890096406178e-03
   303   -4.832422663099e-03
   304   -1.846306104281e-01
   305    4.626520892693e-03
   306   -1.531154739373e-01
   307   -6.273258806814e-03
   308   -1.997514932516e-01
   309   -2.291350779745e-02
   310    1.183659333856e-02
   311   -7.606044397478e-03
   312   -1.641713577976e-02
   313    4.153034406007e-04
   314    3.818125584980e-01
   315   -6.366105439903e-02
   316   -3.416864792518e-02
   317   -6.006014155106e-02
   318   -3.382243102754e-03
   319   -1.615320316713e-01
   320   -8.366890512407e-03
   321   -2.221606248093e-01
   322    6.355092888037e-03
   323   -1.154147131061e-01
Sym=X
Ene= 0.248727
Spin=Alpha
Occup=0
     1    8.526638597109e-04
     2   -5.955644033484e-04
     3    2.242337230365e-04
     4    5.376244361544e-03
     5   -3.715012541641e-03
     6   -1.271952067282e-02
     7   -3.950442497293e-03
     8   -1.943995258902e-02
     9    1.364755027500e-02
    10   -4.511198938832e-02
    11   -7.901598889352e-03
    12   -2.137137275439e-03
    13    1.762976629626e-03
    14   -2.638987634748e-01
    15    6.169337618025e-02
    16    9.248483714068e-01
    17    2.105782579279e-01
    18   -3.073842337660e-03
    19   -3.491367050388e-03
    20    1.540253688049e-02
    21    1.020900520373e-02
    22    3.543809207086e-02
    23    5.724070091057e-03
    24    2.806504509734e-03
    25   -4.530775265185e-03
    26    1.269560366656e-02
    27    1.574005852561e-02
    28    3.015320623998e-02
    29    3.003060654359e-03
    30    2.708918055165e-03
    31   -9.001687444228e-03
    32   -2.261771884125e-02
    33    9.915223040381e-03
    34    3.180856535545e-02
    35    4.444630001148e-02
    36    5.114865598785e-02
    37   -2.950687141583e-02
    38   -8.066058314478e-02
    39   -9.092907840631e-02
    40    2.302908792101e-01
    41   -7.118086552696e-03
    42   -2.424321595719e-01
    43   -7.745929185378e-04
    44   -4.772265556386e-03
    45    2.532175012885e-03
    46   -9.331283444409e-03
    47    4.065699341320e-02
    48   -4.076038461138e-02
    49    2.184206470466e-03
    50    1.613408946478e-02
    51   -1.052783651664e-01
    52    2.754411041983e-01
    53   -1.232632281100e-01
    54    1.776492753365e-01
    55   -2.678622349114e-01
    56    3.861283682767e-04
    57   -1.942176787751e-02
    58    2.004923211275e-03
    59    7.027008853700e-02
    60    1.666434856877e-02
    61    1.365260004657e-01
    62   -3.862904274042e-02
    63    9.372564915000e-02
    64    7.463536932621e-03
    65   -3.733554382257e-03
    66    5.759914053674e-03
    67    1.959831179043e-02
    68    3.891296155396e-03
    69   -5.535855507755e-03
    70    8.708819979593e-04
    71    6.783520600940e-02
    72   -3.391740560231e-03
    73    4.852067397371e-02
    74   -2.907871588950e-03
    75    1.872333089411e-02
    76   -4.848643715778e-02
    77    2.782919885229e-02
    78   -6.582466363754e-03
    79   -7.910536908306e-02
    80   -9.675792052010e-02
    81   -2.008309279476e-02
    82   -3.646488813140e-02
    83    5.209920229919e-03
    84   -1.119043348657e-02
    85   -9.130381142309e-03
    86    1.896662208111e-02
    87   -1.089921344285e-02
    88    6.859273456044e-03
    89   -7.893231939427e-02
    90    5.707357328317e-04
    91    4.859915132338e-02
    92    2.690318159271e-02
    93   -2.085129633854e-02
    94    3.760354166171e-02
    95    2.203096064356e-02
    96   -4.735039068265e-02
    97   -4.425629680696e-01
    98    1.255749572574e-01
    99    2.200226900954e-02
   100   -7.167291625124e-02
   101    1.382052320614e-02
   102   -2.004399957738e-02
   103    5.669182938279e-02
   104   -1.872474895947e-02
   105   -2.374971295714e-02
   106   -1.326666794926e-01
   107    2.810849902400e-01
   108   -6.886963870616e-02
   109   -2.118037640936e-02
   110    1.776097078478e-03
   111    1.899929161063e-01
   112    2.599764976547e-03
   113   -1.144387112814e-01
   114   -3.490296362682e-02
   115    2.803633035957e-02
   116    1.914893106366e-02
   117    3.516583960589e-03
   118   -1.011347853415e-01
   119    5.384051843722e-01
   120    9.431072627644e-02
   121    3.599240933901e-02
   122   -4.032837702551e-01
   123   -1.433180488357e-02
   124   -7.273500674056e-01
   125    3.802698269623e-03
   126   -3.292967722477e-02
   127   -3.044294205809e-02
   128    4.770736393982e-03
   129    4.985075721932e-03
   130    2.352956545796e-01
   131   -6.319598234280e-02
   132   -3.573189671507e-02
   133    1.197436115387e-01
   134    5.269847925038e-04
   135    9.962064806735e-03
   136    1.937698790250e-03
   137   -1.660123404580e-02
   138    1.259484276618e-02
   139   -3.517251415467e-02
   140   -8.849388797320e-02
   141   -6.890030897844e-02
   142   -1.068605261130e-01
   143    2.136018137881e-02
   144    3.213288492082e-02
   145    2.359552416938e-02
   146   -1.760678727791e-02
   147    5.820038725997e-02
   148    1.119561280905e-02
   149    6.076702731329e-02
   150   -4.766702687827e-01
   151    2.166851575112e-01
   152    6.565722095789e-02
   153    2.761685920601e-01
   154    1.169650148842e-02
   155    6.341141008679e-01
   156    1.152876670778e-02
   157   -5.114689253482e-04
   158    3.046002892533e-02
   159    3.470195650208e-02
   160   -2.335488200459e-02
   161   -2.820477593770e-01
   162    5.557560350395e-02
   163    1.248825883744e-01
   164   -1.021470333382e-01
   165    1.117454348571e-02
   166    3.454614714547e-01
   167   -1.018863532238e-02
   168    1.013444685998e-02
   169    1.702148172285e-02
   170   -4.818269280837e-02
   171    2.321394126214e-02
   172    2.222778798876e-01
   173    5.194606440095e-02
   174   -8.554295798808e-02
   175    7.634127398082e-02
   176    1.953149197301e-02
   177   -3.904423399720e-02
   178    2.521281635517e-02
   179   -1.349421998858e-02
   180   -3.869947679498e-03
   181   -4.501902174484e-02
   182   -1.998379390639e-02
   183   -4.035494574190e-01
   184   -2.326731740630e-02
   185   -1.426833319411e-01
   186   -1.143695356967e-01
   187    1.250820160197e-02
   188    2.294693008556e-01
   189    4.800090789489e-03
   190    2.654806808127e-01
   191   -1.139805750067e-02
   192    7.230610660206e-02
   193    1.630696552560e-02
   194   -1.288678585967e-02
   195   -8.848386402477e-03
   196   -7.038419058135e-03
   197   -5.093374433639e-03
   198   -2.246898499041e-01
   199   -4.722570482612e-02
   200    3.861640291193e-02
   201   -4.246670265157e-02
   202    9.029742460393e-03
   203    1.374597894736e-01
   204   -1.152069854411e-02
   205    2.702358147708e-02
   206    1.296771269259e-02
   207    1.053205983271e-01
   208   -2.728749153672e-02
   209    2.932310569797e-02
   210    5.304952737446e-03
   211    4.643371517299e-02
   212   -4.627978689849e-02
   213    4.056947401331e-01
   214    7.460794344892e-03
   215    1.629718676213e-01
   216   -9.334340902835e-02
   217   -2.233644305152e-02
   218    3.108319871757e-02
   219    8.654885017327e-03
   220    4.891236379665e-02
   221   -7.932898528301e-03
   222    2.554457967914e-01
   223    1.853804855674e-02
   224    2.274949468042e-01
   225    3.675930036275e-02
   226    8.008340555014e-03
   227    6.531974903593e-02
   228   -1.004329364746e-02
   229   -2.114330286234e-01
   230    3.605795260867e-02
   231   -2.591472025026e-02
   232    1.677878253079e-02
   233    1.867813825726e-02
   234   -1.119776716432e-01
   235   -5.960662709848e-01
   236    6.940523435315e-02
   237    1.780974003156e-01
   238   -4.512811798006e-01
   239    2.525249237392e-02
   240    8.821730031949e-01
   241   -6.898228838288e-03
   242    4.321102026981e-02
   243    2.317846583400e-02
   244    2.741294344684e-03
   245    1.134859528098e-03
   246   -2.854377850553e-01
   247   -1.947594246048e-02
   248   -6.023707677165e-02
   249    1.265772070736e-01
   250    5.097037855808e-03
   251   -1.169614321602e-02
   252   -1.038824789772e-02
   253   -1.560408288810e-02
   254   -2.182416128436e-02
   255   -8.945643462647e-02
   256    1.458440740955e-01
   257   -4.667070733915e-02
   258   -2.107365118383e-01
   259   -1.793172104279e-02
   260    1.831721358431e-01
   261   -2.391116972603e-02
   262    2.303114028139e-02
   263   -5.945507982789e-02
   264    3.045386237020e-02
   265    4.674557883048e-02
   266    4.341016172621e-01
   267   -2.783288596948e-01
   268    1.169969956810e-01
   269    2.593761483410e-01
   270   -1.092824084182e-02
   271   -6.417221649513e-01
   272   -1.714947900813e-02
   273    5.337284454338e-03
   274   -1.599730362266e-02
   275    5.534990997537e-02
   276   -4.046579962615e-02
   277    4.766502882144e-01
   278   -2.145261548520e-03
   279    1.466152351699e-01
   280   -1.223729052720e-01
   281   -1.036437522954e-02
   282   -4.637807155001e-01
   283    4.766303319913e-03
   284   -2.382757171585e-03
   285   -2.591898782836e-02
   286   -3.432312830911e-02
   287   -6.195493510033e-03
   288   -1.402146563162e-01
   289    1.915442733416e-02
   290   -7.893230951726e-02
   291   -4.150188997335e-02
   292   -2.441702199757e-02
   293   -1.163024538656e-01
   294   -3.502835706149e-02
   295    2.336135940375e-02
   296    3.786533236361e-02
   297   -2.525481070866e-02
   298    2.336347367176e-03
   299    5.546557072887e-01
   300    1.400347178949e-01
   301   -8.259446105206e-02
   302   -2.969276663732e-02
   303   -8.829206025697e-03
   304   -3.022291687001e-01
   305    1.117109041300e-02
   306   -1.948590851071e-01
   307   -1.076124334229e-02
   308   -2.207938116095e-01
   309   -3.894537712715e-02
   310    2.828263168729e-02
   311   -3.635774386979e-02
   312   -4.069672004337e-02
   313   -1.863504391232e-02
   314    5.982975577865e-01
   315   -6.708142410203e-02
   316   -1.167645080383e-01
   317   -9.866952324254e-02
   318   -1.067883159839e-02
   319   -3.602683964447e-01
   320   -1.280395132367e-02
   321   -1.258137048653e-01
   322    1.269726670452e-02
   323   -1.846331056413e-01
Sym=X
Ene= 0.265621
Spin=Alpha
Occup=0
     1    9.326519824779e-04
     2   -3.221855647205e-03
     3    4.086796186881e-03
     4   -1.515883586276e-03
     5    2.131979842239e-03
     6   -1.856608734733e-02
     7   -7.548858878306e-03
     8    5.304346226847e-03
     9   -5.817728809866e-03
    10   -1.132688610494e-01
    11    1.715206026041e-02
    12    1.523947966037e-05
    13    4.229907746083e-03
    14   -9.656071861474e-03
    15   -3.809919671659e-01
    16    2.179762884024e-02
    17   -1.454621224540e-01
    18    2.376364913992e-02
    19   -1.841443526779e-02
    20    5.279283518007e-03
    21   -2.587278612679e-03
    22    8.602882118790e-03
    23    6.143400014396e-02
    24    1.401112450288e-02
    25   -1.267311940579e-02
    26    2.924404717325e-03
    27   -2.554359791356e-03
    28    7.034787371440e-03
    29    3.836757642500e-02
    30    3.504943184163e-03
    31   -2.951611640914e-02
    32   -1.807892544520e-02
    33   -9.295753416942e-03
    34    3.169740025672e-02
    35   -8.047390260170e-03
    36    4.470408373376e-02
    37    2.508446430188e-02
    38   -8.276587565565e-02
    39    4.382151490770e-01
    40    1.974983494875e-01
    41    8.064049979840e-02
    42   -3.194940742381e-01
    43    5.945315317208e-03
    44   -3.899900025022e-02
    45    8.585306779064e-03
    46    3.250296478861e-02
    47   -5.108503084634e-02
    48    2.585810061781e-02
    49   -2.739268719541e-02
    50   -8.246653658932e-02
    51    1.282271528450e-01
    52    4.028899386963e-01
    53    9.654147603867e-03
    54   -2.579207056659e-01
    55    4.596252139865e-01
    56   -2.629268617979e-02
    57    4.254358606082e-02
    58    2.760519137071e-02
    59    1.534596996114e-02
    60   -4.015111465101e-02
    61    4.333927815418e-01
    62    1.032755173319e-01
    63    1.265706936898e-01
    64   -2.171440506900e-01
    65   -6.166504801144e-03
    66    4.884301654981e-03
    67   -8.849186129424e-03
    68   -6.009427863517e-03
    69   -7.271951006819e-03
    70    1.747613803542e-01
    71   -7.100074303245e-02
    72   -5.650117356306e-02
    73   -7.468576139412e-02
    74   -2.592157359248e-02
    75    3.295268446953e-02
    76    2.179706119801e-02
    77    5.478967619046e-04
    78    3.909533322427e-02
    79    5.120875535594e-01
    80    2.440967067891e-02
    81   -2.961489668914e-02
    82    2.315918828993e-01
    83   -4.166301584332e-03
    84    4.533303583209e-03
    85   -3.813071902160e-03
    86    1.470426861870e-02
    87   -1.599163929159e-02
    88    1.089919506016e-01
    89   -6.486385840821e-02
    90    2.967043039464e-02
    91    7.228853642598e-02
    92    3.345848526079e-02
    93   -2.872044589919e-02
    94    4.461675669568e-02
    95    2.961842672263e-02
    96   -7.073052811687e-02
    97   -5.083716658061e-01
    98    1.692737464175e-01
    99    7.955267773041e-02
   100   -2.232815161850e-01
   101    2.779888710690e-02
   102   -1.474304321471e-02
   103    3.516105126374e-02
   104   -1.198882742980e-02
   105    3.238265811090e-02
   106   -5.137710822412e-01
   107    2.312203157200e-01
   108    3.385762675257e-02
   109    1.858069862457e-01
   110    7.028784350754e-03
   111    2.678124880726e-01
   112   -1.719777397341e-02
   113    2.484138838400e-01
   114    2.010590002594e-02
   115    6.402808004220e-03
   116   -7.791278729521e-03
   117   -1.505663761794e-02
   118    4.009788336055e-02
   119   -5.080503322194e-01
   120   -1.904081572847e-01
   121   -1.602821528674e-01
   122    7.475517868372e-02
   123   -3.460523615827e-03
   124    3.758689309223e-01
   125    4.448912124146e-04
   126    3.354168204525e-02
   127    2.379033076080e-02
   128   -6.862187505028e-03
   129   -2.709944263537e-02
   130   -4.102412395986e-01
   131    1.147630025657e-01
   132    6.097897730575e-02
   133   -6.369001436209e-02
   134    1.752004843786e-02
   135   -3.864259313121e-02
   136    8.546963865944e-04
   137   -4.260371396217e-03
   138    1.282099466860e-02
   139   -1.195372175877e-01
   140    1.376628590898e-01
   141    3.622148998969e-02
   142    3.043416882571e-01
   143   -1.285584010408e-02
   144    2.965204242287e-01
   145   -2.785055785813e-02
   146    3.474833094842e-02
   147   -2.848009658896e-02
   148   -4.287889209139e-03
   149   -4.166452291062e-02
   150    4.479138646035e-01
   151   -2.054886521677e-01
   152   -5.579468982967e-02
   153   -2.957110455172e-01
   154   -7.315662644182e-03
   155   -5.677452328924e-01
   156    3.157306959337e-03
   157   -1.870358723973e-02
   158   -4.556091062787e-03
   159   -2.101684430891e-02
   160    1.056448797956e-02
   161    7.777325712566e-02
   162    6.503639507259e-02
   163   -1.051866572060e-02
   164    4.798624914905e-02
   165   -2.710214719696e-03
   166   -3.342613971768e-02
   167    1.326865890719e-02
   168   -2.439583898101e-02
   169   -1.779682601350e-02
   170    2.243867709433e-02
   171   -2.166648442573e-02
   172   -3.028426549534e-01
   173   -9.099162827201e-02
   174   -7.195032057820e-03
   175   -5.878138196248e-02
   176   -9.105054903329e-03
   177    1.387067773712e-01
   178    3.772286175265e-02
   179   -2.516149906638e-02
   180   -1.672530949138e-02
   181   -4.725713187281e-02
   182   -1.023207974135e-02
   183   -6.278744822288e-01
   184   -1.080746958371e-01
   185   -1.846008294048e-01
   186   -5.936764834331e-02
   187    2.093050929521e-02
   188    3.707586201263e-01
   189    9.271619999234e-04
   190    3.198949366453e-01
   191   -1.528228168918e-02
   192    2.499263269001e-01
   193    1.192986502375e-02
   194   -2.487297827374e-04
   195   -4.925043359705e-02
   196   -1.779262839625e-02
   197    7.767946941440e-04
   198   -2.538703663017e-01
   199   -1.659764655737e-01
   200   -2.364663834312e-02
   201    5.428831974354e-02
   202   -4.659849586566e-04
   203    2.003335518195e-01
   204   -1.340872311306e-02
   205    1.637429426879e-01
   206    1.070733455822e-02
   207    7.022808888887e-02
   208    3.628679368248e-02
   209   -3.083670783986e-02
   210   -2.280814176223e-03
   211   -7.944922821986e-02
   212    7.734167504255e-02
   213   -5.382637507503e-01
   214   -3.895369557904e-02
   215   -2.869350676118e-01
   216    1.592941858319e-01
   217   -1.139419178279e-02
   218    3.904052731493e-03
   219    2.637085125757e-02
   220   -4.389991684934e-02
   221    5.484700730438e-02
   222    2.142595943833e-01
   223    1.491396127709e-01
   224   -2.636477551207e-01
   225    5.313026540396e-02
   226   -1.707528482112e-02
   227   -2.938440722924e-01
   228   -3.305434770342e-03
   229   -4.417155139378e-02
   230    4.568686247826e-03
   231    2.900380771374e-03
   232    2.580551014950e-03
   233    3.277497839904e-02
   234    8.230416457862e-03
   235   -2.086661557397e-01
   236   -2.726119890835e-01
   237    2.159207393736e-01
   238    5.120668319976e-02
   239   -1.147617990987e-02
   240    7.843687785450e-02
   241   -3.512523631900e-03
   242    3.733332243601e-02
   243   -8.077805660706e-03
   244    5.418755201723e-02
   245    3.731085937387e-03
   246   -4.388575254490e-01
   247    2.824057950722e-02
   248   -2.049389870563e-03
   249    5.814889605412e-02
   250    4.314571275753e-02
   251   -6.448554131000e-02
   252    2.466524312964e-02
   253    4.912429915539e-02
   254   -9.856212376539e-02
   255   -6.725773082701e-01
   256    3.001784023599e-01
   257    9.596052958432e-02
   258   -6.223002110820e-01
   259   -1.149826531932e-03
   260    1.046663814678e+00
   261   -1.800698630140e-02
   262    2.960061123493e-02
   263   -1.121153525496e-02
   264    5.215629997209e-03
   265    2.508109164117e-02
   266    1.906397234470e-01
   267   -1.824348000415e-01
   268   -2.103712142433e-02
   269    3.308290923606e-01
   270   -6.418204044241e-03
   271   -3.629585351204e-01
   272   -2.423196950761e-02
   273    6.706000103444e-03
   274   -2.650358329768e-02
   275    8.429694005775e-02
   276   -5.989466318234e-02
   277    7.478323530132e-01
   278   -1.169238368219e-01
   279    2.287156380149e-01
   280   -1.536880309090e-01
   281   -5.080649379993e-03
   282   -7.075940099162e-01
   283    4.217034937684e-03
   284   -1.714540204183e-02
   285    1.638900229671e-02
   286    1.726985681502e-02
   287   -5.053584534324e-02
   288   -5.945082725802e-03
   289    1.223123906958e-01
   290    3.009790053608e-02
   291   -1.547038309116e-01
   292   -1.815897581892e-02
   293   -3.082520966780e-01
   294    2.454832253491e-02
   295   -1.812401644531e-02
   296   -1.270371439567e-02
   297    9.820592056848e-03
   298    2.196116003690e-02
   299   -3.628775680238e-01
   300   -8.328000891157e-02
   301    5.208404141408e-02
   302    1.032602379750e-01
   303    1.220401169914e-02
   304    2.884554599150e-01
   305   -1.807949382644e-02
   306    2.064639161888e-03
   307    8.773064351090e-03
   308    1.931852827551e-01
   309    1.748060597771e-02
   310   -1.082254117133e-02
   311    2.099090153791e-02
   312    1.041878418212e-02
   313    3.455149964412e-02
   314   -3.166901320650e-01
   315    5.772692052915e-02
   316    1.949067029695e-02
   317    1.004481288665e-01
   318   -1.135822797792e-03
   319    2.036601007106e-01
   320    1.634911129740e-02
   321    1.906556727696e-01
   322   -8.748775811667e-03
   323   -2.165155700827e-02

======= END OF MOLDEN-FORMATTED INPUT FILE =======


        *************************************************************
        *                                                           *
        *  Thank you very much for using Q-Chem.  Have a nice day.  *
        *                                                           *
        *************************************************************


