                  Welcome to Q-Chem
     A Quantum Leap Into The Future Of Chemistry


 Q-Chem 5.4 (devel), Q-Chem, Inc., Pleasanton, CA (2021)

 E. Epifanovsky,  A. T. B. Gilbert,  Xintian Feng,  Joonho Lee,  Yuezhi Mao,  
 N. Mardirossian,  P. Pokhilko,  A. White,  M. Wormit,  M. P. Coons,  
 A. L. Dempwolff,  Zhengting Gan,  D. Hait,  P. R. Horn,  L. D. Jacobson,  
 I. Kaliman,  J. Kussmann,  A. W. Lange,  Ka Un Lao,  D. S. Levine,  Jie Liu,  
 S. C. McKenzie,  A. F. Morrison,  K. Nanda,  F. Plasser,  D. R. Rehn,  
 M. L. Vidal,  Zhi-Qiang You,  Ying Zhu,  B. Alam,  B. Albrecht,  
 A. Aldossary,  E. Alguire,  J. H. Andersen,  D. Barton,  K. Begam,  A. Behn,  
 Y. A. Bernard,  E. J. Berquist,  H. Burton,  A. Carreras,  K. Carter-Fenk,  
 Romit Chakraborty,  A. D. Chien,  K. D. Closser,  V. Cofer-Shabica,  
 S. Dasgupta,  Jia Deng,  M. de Wergifosse,  M. Diedenhofen,  Hainam Do,  
 S. Ehlert,  Po-Tung Fang,  S. Fatehi,  Qingguo Feng,  T. Friedhoff,  
 J. Gayvert,  Qinghui Ge,  G. Gidofalvi,  M. Goldey,  J. Gomes,  
 C. Gonzalez-Espinoza,  S. Gulania,  A. Gunina,  M. W. D. Hanson-Heine,  
 P. H. P. Harbach,  A. W. Hauser,  M. F. Herbst,  M. Hernandez Vera,  
 M. Hodecker,  Z. C. Holden,  S. Houck,  Xunkun Huang,  Kerwin Hui,  
 B. C. Huynh,  M. Ivanov,  Hyunjun Ji,  Hanjie Jiang,  B. Kaduk,  S. Kaehler,  
 K. Khistyaev,  Jaehoon Kim,  P. Klunzinger,  Z. Koczor-Benda,  
 Joong Hoon Koh,  D. Kosenkov,  L. Koulias,  T. Kowalczyk,  C. M. Krauter,  
 K. Kue,  A. Kunitsa,  T. Kus,  A. Landau,  K. V. Lawler,  D. Lefrancois,  
 S. Lehtola,  Rain Li,  Yi-Pei Li,  Jiashu Liang,  M. Liebenthal,  
 Hung-Hsuan Lin,  You-Sheng Lin,  Fenglai Liu,  Kuan-Yu Liu,  
 M. Loipersberger,  A. Luenser,  A. Manjanath,  P. Manohar,  E. Mansoor,  
 S. F. Manzer,  Shan-Ping Mao,  A. V. Marenich,  T. Markovich,  S. Mason,  
 S. A. Maurer,  P. F. McLaughlin,  M. F. S. J. Menger,  J.-M. Mewes,  
 S. A. Mewes,  P. Morgante,  J. W. Mullinax,  K. J. Oosterbaan,  G. Paran,  
 Alexander C. Paul,  Suranjan K. Paul,  F. Pavosevic,  Zheng Pei,  S. Prager,  
 E. I. Proynov,  E. Ramos,  B. Rana,  A. E. Rask,  A. Rettig,  R. M. Richard,  
 F. Rob,  E. Rossomme,  T. Scheele,  M. Scheurer,  M. Schneider,  
 N. Sergueev,  S. M. Sharada,  W. Skomorowski,  D. W. Small,  C. J. Stein,  
 Yu-Chuan Su,  E. J. Sundstrom,  Zhen Tao,  J. Thirman,  T. Tsuchimochi,  
 N. M. Tubman,  S. P. Veccham,  O. Vydrov,  J. Wenzel,  J. Witte,  A. Yamada,  
 Kun Yao,  S. Yeganeh,  S. R. Yost,  A. Zech,  Igor Ying Zhang,  Xing Zhang,  
 Yu Zhang,  D. Zuev,  A. Aspuru-Guzik,  A. T. Bell,  N. A. Besley,  
 K. B. Bravaya,  B. R. Brooks,  D. Casanova,  Jeng-Da Chai,  S. Coriani,  
 C. J. Cramer,  A. E. DePrince, III,  R. A. DiStasio Jr.,  A. Dreuw,  
 B. D. Dunietz,  T. R. Furlani,  W. A. Goddard III,  S. Grimme,  
 S. Hammes-Schiffer,  T. Head-Gordon,  W. J. Hehre,  Chao-Ping Hsu,  
 T.-C. Jagau,  Yousung Jung,  A. Klamt,  Jing Kong,  D. S. Lambrecht,  
 WanZhen Liang,  N. J. Mayhall,  C. W. McCurdy,  J. B. Neaton,  T. Neudecker,  
 C. Ochsenfeld,  J. A. Parkhill,  R. Peverati,  V. A. Rassolov,  Yihan Shao,  
 L. V. Slipchenko,  R. P. Steele,  J. E. Subotnik,  A. J. W. Thom,  
 A. Tkatchenko,  D. G. Truhlar,  T. Van Voorhis,  T. A. Wesolowski,  
 K. B. Whaley,  H. L. Woodcock III,  P. M. Zimmerman,  S. Faraji,  
 P. M. W. Gill,  M. Head-Gordon,  J. M. Herbert,  A. I. Krylov

 Additional authors since Version 5.4.0: 
 Chandrima Chakravarty,  L. Cunha,  R. Kang,  Yongbin Kim,  S. Kotaru,  
 Shaozhi Li,  Xiangyuan Li,  F. Matz,  V. Parravicini,  Haisheng Ren,  
 Hengyuan Shen,  Yingli Su,  Hung-Yi Tsai,  C. Utku,  Fan Wang,  Jeff Yang,  
 F. Zeller

 Contributors to earlier versions of Q-Chem not listed above: 
 R. D. Adamson,  B. Austin,  R. Baer,  J. Baker,  G. J. O. Beran,  
 K. Brandhorst,  S. T. Brown,  E. F. C. Byrd,  Arup K. Chakraborty,  
 G. K. L. Chan,  Chun-Min Chang,  Yunqing Chen,  C.-L. Cheng,  
 Siu Hung Chien,  D. M. Chipman,  D. L. Crittenden,  H. Dachsel,  
 R. J. Doerksen,  A. D. Dutoi,  R. G. Edgar,  J. Fosso-Tande,  
 L. Fusti-Molnar,  D. Ghosh,  A. Ghysels,  A. Golubeva-Zadorozhnaya,  
 J. Gonthier,  M. S. Gordon,  S. R. Gwaltney,  G. Hawkins,  J. E. Herr,  
 A. Heyden,  S. Hirata,  E. G. Hohenstein,  G. Kedziora,  F. J. Keil,  
 C. Kelley,  Jihan Kim,  R. A. King,  R. Z. Khaliullin,  P. P. Korambath,  
 W. Kurlancheek,  A. Laurent,  A. M. Lee,  M. S. Lee,  S. V. Levchenko,  
 Ching Yeh Lin,  D. Liotard,  E. Livshits,  R. C. Lochan,  I. Lotan,  
 L. A. Martinez-Martinez,  P. E. Maslen,  N. Nair,  D. P. O'Neill,  
 D. Neuhauser,  E. Neuscamman,  C. M. Oana,  R. Olivares-Amaya,  R. Olson,  
 T. M. Perrine,  B. Peters,  P. A. Pieniazek,  A. Prociuk,  Y. M. Rhee,  
 J. Ritchie,  M. A. Rohrdanz,  E. Rosta,  N. J. Russ,  H. F. Schaefer III,  
 M. W. Schmidt,  N. E. Schultz,  S. Sharma,  N. Shenvi,  C. D. Sherrill,  
 A. C. Simmonett,  A. Sodt,  T. Stein,  D. Stuck,  K. S. Thanthiriwatte,  
 V. Vanovschi,  L. Vogt,  Tao Wang,  A. Warshel,  M. A. Watson,  
 C. F. Williams,  Q. Wu,  X. Xu,  Jun Yang,  W. Zhang,  Yan Zhao

   Please cite Q-Chem as follows:
  "Software for the frontiers of quantum chemistry:
   An overview of developments in the Q-Chem 5 package"
   J. Chem. Phys. 155, 084801 (2021)
   https://doi.org/10.1063/5.0055522 (open access)

 Q-Chem 5.4.2 for Intel X86 EM64T Linux

 Parts of Q-Chem use Armadillo 9.900.5 (Nocturnal Misbehaviour).
 http://arma.sourceforge.net/

 Q-Chem begins on Fri May  6 18:12:05 2022  

orc24
 Host: 0

     Scratch files written to /scratch/sven/qchem25088//
 Processing $rem in /qcsoftware/qchem_latest/config/preferences:
 Processing $rem in /home/users/sven/.qchemrc:
 Core orbitals will be frozen

 Checking the input file for inconsistencies... 	...done.

--------------------------------------------------------------
User input:
--------------------------------------------------------------
$molecule
3 1
  V   -0.0000000    0.0000000    0.4755287
  O    2.0334748    0.1146306    0.1914261
  O   -0.0197905    2.0153327    0.0833683
  O    0.0197905   -2.0153327    0.0833683
  O   -2.0334748   -0.1146306    0.1914261
  O    0.0000000   -0.0000000    2.0576597
  H   -0.8045743   -2.4911207    0.3090693
  H    0.7533224   -2.5462888    0.4507225
  H    2.6398775   -0.2169972    0.8811956
  H    2.3782246   -0.1931867   -0.6699049
  H    0.8045743    2.4911207    0.3090693
  H   -0.7533224    2.5462888    0.4507225
  H   -2.6398775    0.2169972    0.8811956
  H   -2.3782246    0.1931867   -0.6699049
  O    0.0000000   -0.0000000   -1.7314097
  H    0.0103472    0.7864115   -2.3061323
  H   -0.0103472   -0.7864115   -2.3061323
$end

$rem
 JOBTYPE           = SP 
 METHOD            = EOM-MP2
 MAX_SCF_CYCLES = 250
 SCF_ALGORITHM = DIIS_GDM
 UNRESTRICTED = FALSE
 EA_STATES         = [25,25]
 CC_STATE_TO_OPT   = [1,1]
 CC_REF_PROP = 1
 CC_EOM_PROP = 1
 CC_EOM_PROP_TE           = 1
 CC_TRANS_PROP            = 1
 CALC_SOC = TRUE
 EOM_DAVIDSON_MAX_ITER = 250
 MEM_TOTAL = 90000
 CC_MEMORY = 72000
 MEM_STATIC = 1000
 CHOLESKY_TOL = 3
 !SOLVENT_METHOD = PCM 
 !CC_FNO_THRESH = 9900
 BASIS def2-TZVP
 PRINT_ORBITALS   = 15
 MOLDEN_FORMAT    = TRUE
 STATE_ANALYSIS = TRUE
$end

!$van_der_waals
!1
!23 1.79
!$end
! according to https://periodic.lanl.gov/23.shtml
--------------------------------------------------------------
 ----------------------------------------------------------------
             Standard Nuclear Orientation (Angstroms)
    I     Atom           X                Y                Z
 ----------------------------------------------------------------
    1      V      -0.0000000000    -0.0000000000     0.2869636272
    2      O       1.8746318165    -0.7961880992     0.0028610272
    3      O       0.8732355326     1.8164298115    -0.1051967728
    4      O      -0.8732355326    -1.8164298115    -0.1051967728
    5      O      -1.8746318165     0.7961880992     0.0028610272
    6      O      -0.0000000000    -0.0000000000     1.8690946272
    7      H      -1.8230087001    -1.8787393181     0.1205042272
    8      H      -0.4500218986    -2.6169756556     0.2621574272
    9      H       2.2719390311    -1.3617393431     0.6926305272
   10      H       2.0477725883    -1.2247043625    -0.8584699728
   11      H       1.8230087001     1.8787393181     0.1205042272
   12      H       0.4500218986     2.6169756556     0.2621574272
   13      H      -2.2719390311     1.3617393431     0.6926305272
   14      H      -2.0477725883     1.2247043625    -0.8584699728
   15      O      -0.0000000000    -0.0000000000    -1.9199747728
   16      H       0.3569568287     0.7008080581    -2.4946973728
   17      H      -0.3569568287    -0.7008080581    -2.4946973728
 ----------------------------------------------------------------
 Molecular Point Group                 C2    NOp =  2
 Largest Abelian Subgroup              C2    NOp =  2
 Nuclear Repulsion Energy =         623.27172641 hartrees
 There are       39 alpha and       39 beta electrons
 Requested basis set is def2-TZVP
 There are 121 shells and 291 basis functions
 Total memory of 90000 MB is distributed as follows: 
   MEM_STATIC is set to 1000 MB
   QALLOC/CCMAN JOB total memory use is  89000 MB
 Warning: actual memory use might exceed 90000 MB

 Total QAlloc Memory Limit  90000 MB
 Mega-Array Size       978 MB
 MEM_STATIC part      1000 MB

 A cutoff of  1.0D-14 yielded   6779 shell pairs
 There are     40093 function pairs (     51014 Cartesian)
 Smallest overlap matrix eigenvalue = 1.12E-03

 Scale SEOQF with 1.000000e-01/1.000000e-01/1.000000e-01

 Standard Electronic Orientation quadrupole field applied
 Nucleus-field energy     =     0.0000000019 hartrees
 Guess from superposition of atomic densities
 Warning:  Energy on first SCF cycle will be non-variational
 SAD guess density has 81.000000 electrons

 -----------------------------------------------------------------------
  General SCF calculation program by
  Eric Jon Sundstrom, Paul Horn, Yuezhi Mao, Dmitri Zuev, Alec White,
  David Stuck, Shaama M.S., Shane Yost, Joonho Lee, David Small,
  Daniel Levine, Susi Lehtola, Hugh Burton, Evgeny Epifanovsky,
  Bang C. Huynh
 -----------------------------------------------------------------------
 Hartree-Fock
 using 12 threads for integral computing
 -------------------------------------------------------
 OpenMP Integral computing Module                
 Release: version 1.0, May 2013, Q-Chem Inc. Pittsburgh 
 -------------------------------------------------------
 A restricted SCF calculation will be
 performed using DIIS, GDM
 SCF converges when RMS gradient is below 1.0e-08
 ---------------------------------------
  Cycle       Energy         DIIS error
 ---------------------------------------
    1   -1397.9153149993      3.56e-02  
    2   -1395.9367548699      9.89e-03  Done DIIS. Switching to GDM
 ---------------------------------------
  Cycle       Energy        RMS Gradient
 ---------------------------------------
    1   -1395.9367548699      8.22e-01   Descent step
    2   -1396.6842493627      1.35e-01   Descent step
    3   -1396.8302257988      8.24e-02   Normal BFGS step
    4   -1396.8617807884      7.35e-02   Normal BFGS step
    5   -1396.8752440167      6.65e-03   Normal BFGS step
    6   -1396.8759347750      6.09e-03   Normal BFGS step
    7   -1396.8762965316      4.70e-03   Normal BFGS step
    8   -1396.8767841933      2.35e-03   Normal BFGS step
    9   -1396.8769233823      2.17e-03   Normal BFGS step
   10   -1396.8769894187      1.34e-03   Normal BFGS step
   11   -1396.8770053254      1.15e-03   Normal BFGS step
   12   -1396.8770226831      1.49e-03   Normal BFGS step
   13   -1396.8770557172      1.63e-03   Normal BFGS step
   14   -1396.8770945210      1.51e-03   Normal BFGS step
   15   -1396.8771260163      1.01e-03   Normal BFGS step
   16   -1396.8771380859      3.37e-04   Normal BFGS step
   17   -1396.8771390268      1.11e-04   Normal BFGS step
   18   -1396.8771391559      3.08e-05   Normal BFGS step
   19   -1396.8771391775      8.14e-06   Normal BFGS step
   20   -1396.8771391791      3.97e-06   Normal BFGS step
   21   -1396.8771391794      3.90e-06   Normal BFGS step
   22   -1396.8771391796      3.72e-06   Normal BFGS step
   23   -1396.8771391798      3.37e-06   Normal BFGS step
   24   -1396.8771391801      5.24e-06   Normal BFGS step
   25   -1396.8771391805      6.09e-06   Normal BFGS step
   26   -1396.8771391808      4.71e-06   Normal BFGS step
   27   -1396.8771391809      4.66e-06   Normal BFGS step
   28   -1396.8771391810      4.83e-07   Normal BFGS step
   29   -1396.8771391810      3.23e-07   Normal BFGS step
   30   -1396.8771391810      9.39e-08   Normal BFGS step
   31   -1396.8771391810      3.36e-08   Normal BFGS step
   32   -1396.8771391810      1.36e-08   Normal BFGS step
   33   -1396.8771391810      8.99e-09  Convergence criterion met
 ---------------------------------------
 SCF time:   CPU 651.57s  wall 62.00s 
 SCF   energy in the final basis set =    -1396.8771391810
 Total energy in the final basis set =    -1396.8771391810
 mp2 is not implemented in computing transition properties!


 ------------------------------------------------------------------------------

   CCMAN2: suite of methods based on coupled cluster
           and equation of motion theories.

   Components:
   * libvmm-1.3-trunk
     by Evgeny Epifanovsky, Ilya Kaliman.
   * libtensor-2.5-trunk
     by Evgeny Epifanovsky, Michael Wormit, Dmitry Zuev, Sam Manzer, 
        Ilya Kaliman.
   * libcc-2.5-trunk
     by Evgeny Epifanovsky, Arik Landau, Tomasz Kus, Kirill Khistyaev, 
        Dmitry Zuev, Prashant Manohar, Xintian Feng, Anna Krylov, 
        Matthew Goldey, Alec White, Thomas Jagau, Kaushik Nanda, 
        Anastasia Gunina, Alexander Kunitsa, Joonho Lee.

   CCMAN original authors:
   Anna I. Krylov, C. David Sherrill, Steven R. Gwaltney,
   Edward F. C. Byrd (2000)
   Sergey V. Levchenko, Lyudmila V. Slipchenko, Tao Wang,
   Ana-Maria C. Cristian (2003)
   Piotr A. Pieniazek, C. Melania Oana, Evgeny Epifanovsky (2007)
   Prashant Manohar (2009)

 ------------------------------------------------------------------------------


 Allocating and initializing 72000MB of RAM...
 Calculation will run on 12 cores.


 Alpha MOs, Restricted
 -- Occupied --                  
-202.41  -24.83  -21.25  -21.18  -21.18  -21.17  -21.17  -21.12
  1 A     2 A     3 A     1 B     4 A     2 B     5 A     6 A                  
-20.979 -20.976 -20.970  -4.040  -2.876  -2.859  -2.858  -1.959
  3 B     4 B     7 A     8 A     9 A     5 B     6 B    10 A                  
 -1.950  -1.947  -1.947  -1.901  -1.855  -1.318  -1.314  -1.311
  7 B    11 A     8 B    12 A    13 A     9 B    14 A    15 A                  
 -1.308  -1.274  -1.260  -1.237  -1.216  -1.215  -1.206  -1.154
 10 B    11 B    16 A    17 A    12 B    18 A    13 B    14 B                  
 -1.139  -1.126  -1.123  -1.119  -1.114  -1.091  -1.066
 19 A    20 A    21 A    15 B    16 B    17 B    18 B                          
 -- Virtual --                   
 -0.573  -0.570  -0.549  -0.525  -0.466  -0.379  -0.333  -0.316
 22 A    19 B    20 B    23 A    24 A    25 A    21 B    22 B                  
 -0.298  -0.277  -0.261  -0.260  -0.241  -0.233  -0.232  -0.216
 26 A    27 A    23 B    28 A    29 A    24 B    25 B    30 A                  
 -0.191  -0.155  -0.148  -0.128  -0.117  -0.108  -0.091  -0.058
 26 B    27 B    31 A    32 A    33 A    34 A    28 B    35 A                  
 -0.053   0.019   0.034   0.045   0.047   0.063   0.072   0.079
 29 B    30 B    36 A    37 A    31 B    32 B    38 A    33 B                  
  0.101   0.127   0.128   0.136   0.177   0.192   0.197   0.210
 39 A    40 A    34 B    35 B    41 A    42 A    36 B    43 A                  
  0.218   0.224   0.237   0.244   0.251   0.259   0.293   0.300
 37 B    44 A    45 A    38 B    39 B    40 B    41 B    42 B                  
  0.304   0.331   0.336   0.350   0.363   0.365   0.383   0.413
 46 A    43 B    47 A    48 A    49 A    44 B    45 B    50 A                  
  0.465   0.474   0.517   0.531   0.563   0.598   0.605   0.650
 46 B    51 A    52 A    47 B    53 A    48 B    54 A    55 A                  
  0.719   0.753   0.874   0.911   0.939   0.952   0.973   1.029
 49 B    50 B    56 A    57 A    58 A    51 B    52 B    59 A                  
  1.041   1.082   1.092   1.134   1.167   1.196   1.217   1.229
 53 B    60 A    54 B    61 A    62 A    55 B    63 A    56 B                  
  1.287   1.297   1.298   1.330   1.334   1.336   1.356   1.370
 64 A    57 B    65 A    58 B    66 A    59 B    67 A    60 B                  
  1.389   1.417   1.430   1.449   1.457   1.461   1.505   1.508
 61 B    68 A    69 A    70 A    62 B    63 B    71 A    64 B                  
  1.527   1.542   1.565   1.573   1.590   1.670   1.674   1.680
 65 B    66 B    72 A    67 B    73 A    68 B    74 A    69 B                  
  1.698   1.775   1.800   1.817   1.846   1.857   1.858   1.872
 75 A    76 A    70 B    77 A    78 A    79 A    71 B    80 A                  
  1.873   1.888   1.904   1.928   1.957   1.985   1.994   2.005
 72 B    81 A    73 B    74 B    82 A    83 A    75 B    84 A                  
  2.030   2.049   2.090   2.108   2.130   2.149   2.159   2.186
 76 B    85 A    77 B    86 A    78 B    87 A    79 B    80 B                  
  2.204   2.217   2.241   2.254   2.272   2.308   2.339   2.341
 88 A    89 A    81 B    90 A    82 B    83 B    84 B    91 A                  
  2.389   2.392   2.410   2.413   2.424   2.439   2.460   2.482
 92 A    85 B    86 B    93 A    87 B    94 A    88 B    95 A                  
  2.494   2.513   2.532   2.566   2.607   2.613   2.628   2.630
 96 A    89 B    97 A    90 B    91 B    98 A    92 B    99 A                  
  2.659   2.717   2.734   2.747   2.791   2.885   2.955   2.973
 93 B    94 B   100 A    95 B   101 A   102 A    96 B   103 A                  
  3.038   3.046   3.071   3.470   3.471   3.516   3.520   3.554
104 A    97 B   105 A    98 B   106 A    99 B   107 A   108 A                  
  3.737   3.750   3.750   3.755   3.826   3.862   4.940   4.942
109 A   110 A   100 B   101 B   102 B   111 A   103 B   104 B                  
  4.955   4.970   4.988   4.988   4.992   4.999   5.022   5.047
112 A   113 A   105 B   114 A   106 B   107 B   115 A   108 B                  
  5.059   5.080   5.091   5.139   5.227   5.235   5.241   5.245
116 A   117 A   109 B   118 A   110 B   111 B   112 B   119 A                  
  5.258   5.258   5.263   5.263   5.269   5.274   5.280   5.307
113 B   120 A   114 B   121 A   122 A   115 B   123 A   116 B                  
  5.318   5.320   5.327   5.331   5.386   5.830   5.845   5.849
124 A   117 B   125 A   118 B   119 B   126 A   120 B   127 A                  
  5.855   5.872   5.926   6.103   6.114   6.120   6.156   6.158
128 A   121 B   122 B   129 A   123 B   130 A   124 B   131 A                  
  6.187   6.239   6.289   6.316   6.319   6.328   6.337   6.353
132 A   133 A   125 B   134 A   126 B   127 B   135 A   136 A                  
  6.367   6.432   6.443   6.496   6.503   6.515   6.563   6.591
128 B   137 A   129 B   130 B   138 A   131 B   132 B   139 A                  
  6.597   6.642   6.659   6.809   6.831   6.833   6.845   6.877
133 B   140 A   141 A   134 B   135 B   142 A   143 A   144 A                  
  6.893   6.926   6.951   6.980   7.055   7.062  44.344  44.470
136 B   145 A   146 A   137 B   138 B   147 A   148 A   139 B                  
 44.474  44.490  44.512  44.597
149 A   140 B   150 A   151 A                                                  

 Beta MOs, Restricted
 -- Occupied --                  
-202.41  -24.83  -21.25  -21.18  -21.18  -21.17  -21.17  -21.12
  1 A     2 A     3 A     1 B     4 A     2 B     5 A     6 A                  
-20.979 -20.976 -20.970  -4.040  -2.876  -2.859  -2.858  -1.959
  3 B     4 B     7 A     8 A     9 A     5 B     6 B    10 A                  
 -1.950  -1.947  -1.947  -1.901  -1.855  -1.318  -1.314  -1.311
  7 B    11 A     8 B    12 A    13 A     9 B    14 A    15 A                  
 -1.308  -1.274  -1.260  -1.237  -1.216  -1.215  -1.206  -1.154
 10 B    11 B    16 A    17 A    12 B    18 A    13 B    14 B                  
 -1.139  -1.126  -1.123  -1.119  -1.114  -1.091  -1.066
 19 A    20 A    21 A    15 B    16 B    17 B    18 B                          
 -- Virtual --                   
 -0.573  -0.570  -0.549  -0.525  -0.466  -0.379  -0.333  -0.316
 22 A    19 B    20 B    23 A    24 A    25 A    21 B    22 B                  
 -0.298  -0.277  -0.261  -0.260  -0.241  -0.233  -0.232  -0.216
 26 A    27 A    23 B    28 A    29 A    24 B    25 B    30 A                  
 -0.191  -0.155  -0.148  -0.128  -0.117  -0.108  -0.091  -0.058
 26 B    27 B    31 A    32 A    33 A    34 A    28 B    35 A                  
 -0.053   0.019   0.034   0.045   0.047   0.063   0.072   0.079
 29 B    30 B    36 A    37 A    31 B    32 B    38 A    33 B                  
  0.101   0.127   0.128   0.136   0.177   0.192   0.197   0.210
 39 A    40 A    34 B    35 B    41 A    42 A    36 B    43 A                  
  0.218   0.224   0.237   0.244   0.251   0.259   0.293   0.300
 37 B    44 A    45 A    38 B    39 B    40 B    41 B    42 B                  
  0.304   0.331   0.336   0.350   0.363   0.365   0.383   0.413
 46 A    43 B    47 A    48 A    49 A    44 B    45 B    50 A                  
  0.465   0.474   0.517   0.531   0.563   0.598   0.605   0.650
 46 B    51 A    52 A    47 B    53 A    48 B    54 A    55 A                  
  0.719   0.753   0.874   0.911   0.939   0.952   0.973   1.029
 49 B    50 B    56 A    57 A    58 A    51 B    52 B    59 A                  
  1.041   1.082   1.092   1.134   1.167   1.196   1.217   1.229
 53 B    60 A    54 B    61 A    62 A    55 B    63 A    56 B                  
  1.287   1.297   1.298   1.330   1.334   1.336   1.356   1.370
 64 A    57 B    65 A    58 B    66 A    59 B    67 A    60 B                  
  1.389   1.417   1.430   1.449   1.457   1.461   1.505   1.508
 61 B    68 A    69 A    70 A    62 B    63 B    71 A    64 B                  
  1.527   1.542   1.565   1.573   1.590   1.670   1.674   1.680
 65 B    66 B    72 A    67 B    73 A    68 B    74 A    69 B                  
  1.698   1.775   1.800   1.817   1.846   1.857   1.858   1.872
 75 A    76 A    70 B    77 A    78 A    79 A    71 B    80 A                  
  1.873   1.888   1.904   1.928   1.957   1.985   1.994   2.005
 72 B    81 A    73 B    74 B    82 A    83 A    75 B    84 A                  
  2.030   2.049   2.090   2.108   2.130   2.149   2.159   2.186
 76 B    85 A    77 B    86 A    78 B    87 A    79 B    80 B                  
  2.204   2.217   2.241   2.254   2.272   2.308   2.339   2.341
 88 A    89 A    81 B    90 A    82 B    83 B    84 B    91 A                  
  2.389   2.392   2.410   2.413   2.424   2.439   2.460   2.482
 92 A    85 B    86 B    93 A    87 B    94 A    88 B    95 A                  
  2.494   2.513   2.532   2.566   2.607   2.613   2.628   2.630
 96 A    89 B    97 A    90 B    91 B    98 A    92 B    99 A                  
  2.659   2.717   2.734   2.747   2.791   2.885   2.955   2.973
 93 B    94 B   100 A    95 B   101 A   102 A    96 B   103 A                  
  3.038   3.046   3.071   3.470   3.471   3.516   3.520   3.554
104 A    97 B   105 A    98 B   106 A    99 B   107 A   108 A                  
  3.737   3.750   3.750   3.755   3.826   3.862   4.940   4.942
109 A   110 A   100 B   101 B   102 B   111 A   103 B   104 B                  
  4.955   4.970   4.988   4.988   4.992   4.999   5.022   5.047
112 A   113 A   105 B   114 A   106 B   107 B   115 A   108 B                  
  5.059   5.080   5.091   5.139   5.227   5.235   5.241   5.245
116 A   117 A   109 B   118 A   110 B   111 B   112 B   119 A                  
  5.258   5.258   5.263   5.263   5.269   5.274   5.280   5.307
113 B   120 A   114 B   121 A   122 A   115 B   123 A   116 B                  
  5.318   5.320   5.327   5.331   5.386   5.830   5.845   5.849
124 A   117 B   125 A   118 B   119 B   126 A   120 B   127 A                  
  5.855   5.872   5.926   6.103   6.114   6.120   6.156   6.158
128 A   121 B   122 B   129 A   123 B   130 A   124 B   131 A                  
  6.187   6.239   6.289   6.316   6.319   6.328   6.337   6.353
132 A   133 A   125 B   134 A   126 B   127 B   135 A   136 A                  
  6.367   6.432   6.443   6.496   6.503   6.515   6.563   6.591
128 B   137 A   129 B   130 B   138 A   131 B   132 B   139 A                  
  6.597   6.642   6.659   6.809   6.831   6.833   6.845   6.877
133 B   140 A   141 A   134 B   135 B   142 A   143 A   144 A                  
  6.893   6.926   6.951   6.980   7.055   7.062  44.344  44.470
136 B   145 A   146 A   137 B   138 B   147 A   148 A   139 B                  
 44.474  44.490  44.512  44.597
149 A   140 B   150 A   151 A                                                  

 Occupation and symmetry of molecular orbitals

 Point group: C2 (2 irreducible representations).

                           A    B     All 
 ------------------------------------------
 All molecular orbitals:
  - Alpha                  151  140   291 
  - Beta                   151  140   291 
 ------------------------------------------
 Alpha orbitals:
  - Frozen occupied        9    6     15  
  - Active occupied        12   12    24  
  - Active virtual         130  122   252 
  - Frozen virtual         0    0     0   
 ------------------------------------------
 Beta orbitals:
  - Frozen occupied        9    6     15  
  - Active occupied        12   12    24  
  - Active virtual         130  122   252 
  - Frozen virtual         0    0     0   
 ------------------------------------------

 Import integrals:   CPU 0.00 s  wall 0.00 s

      Cholesky decomposition of two-electron integrals.
      with threshold: 1.0000000000e-03

      Initial pre-allocated memory: 32 (GB)
 ------------------------------------------------------------------------------
    Rank   Residual
 ------------------------------------------------------------------------------
       1  7.99489226402463
       7  2.08210239004358
      19  0.86141227724026
      61  0.21351390717563
     203  0.05414270118749
     574  0.01367717325892
     927  0.00341881494438
    1069  0.00097558822049
 ------------------------------------------------------------------------------
      The final rank of CD vector is 1069
      The final allocated memory: 32 (GB)
 Cholesky decomposition time:   CPU 342.24 s  wall 30.90 s
 Import integrals:   CPU 430.93 s  wall 38.75 s

 Computing CCSD intermediates for later calculations in double precision
 Finished.

 MP2 amplitudes:   CPU 204.63 s  wall 18.56 s

        Solving for EOMEA-CCSD/MP2 A transitions.

Running a double precision version
      CD-EOMEA-CCSD/MP2 right amplitudes will be solved using Davidson.
        Amplitudes will be solved using standard  algorithm.
     Hard-coded thresholds: 
     LinDepThresh=1.00e-15  NormThresh=1.00e-06  ReorthogonThresh=1.00e-02

      Roots     MaxVec    MaxIter   Precond   Conv      Shift    
      25        120       250       1         1.00e-05  0.00e+00  
 ------------------------------------------------------------------------------
      Iter ConvRoots NVecs ResNorm^2 Current eigenvalues (eV)
 ------------------------------------------------------------------------------
      0    0      25    1.49e-01   -15.2981   -13.2195   -10.6311   -9.8161   -7.7934   -7.2273   -6.7936   -6.2368   -5.6416   -3.8153   -3.2026   -3.0534   -2.4089   -1.0263   1.1498   1.5043   2.3114   3.0499   3.7440   5.1016   5.6523   6.2191   6.4632   6.8704   8.6170   
      1    0      50    1.60e-01   -17.6165   -15.2803   -12.2986   -10.5984   -8.3669   -7.8698   -7.3456   -6.8148   -6.1742   -4.4276   -3.8269   -3.4864   -3.1960   -2.0603   0.3346   0.7275   1.4690   2.1682   2.8372   4.1624   4.6596   4.9809   5.5491   5.8709   7.7262   
      2    0      75    1.80e-02   -19.1135   -17.1637   -14.0307   -11.3307   -9.0207   -8.5950   -7.9312   -7.4923   -6.8316   -5.0043   -4.9285   -3.9568   -3.6932   -3.0167   -0.3423   0.0180   0.5369   1.3675   2.2073   3.7432   3.8398   4.0287   4.5772   4.8720   6.4567   
      3    0      100   7.67e-03   -19.1000   -17.1612   -14.0595   -11.3489   -9.0416   -8.6304   -7.9567   -7.5241   -6.8574   -5.0299   -4.9415   -3.9793   -3.7127   -3.0542   -0.3777   -0.0107   0.4506   1.2168   1.8943   2.9916   3.2056   3.2355   3.4287   4.1927   4.6495   
      4    2      120   2.05e-02   -19.1001*  -17.1611   -14.0619   -11.3515*  -9.0449   -8.6367   -7.9604   -7.5295   -6.8631   -5.0359   -4.9510   -3.9849   -3.7169   -3.0724   -0.3980   -0.0357   0.3727   0.6919   1.3151   1.4655   1.9175   2.4038   2.7079   3.1803   3.3703   
      5    9      48    8.26e-03   -19.1013*  -17.1629*  -14.0627*  -11.3515*  -9.0450*  -8.6371*  -7.9603*  -7.5297*  -6.8631*  -5.0392   -4.9515   -3.9855   -3.7180   -3.0791   -2.2698   -1.1656   -0.3881   -0.0399   0.1579   0.4258   1.1438   1.5311   1.8748   2.7390   3.0535   
      6    10     64    1.59e-02   -19.1009*  -17.1630*  -14.0627*  -11.3516*  -9.0451*  -8.6373*  -7.9604*  -7.5298*  -6.8632*  -5.0387   -4.9523*  -3.9862   -3.7199   -3.6489   -3.0775   -2.0612   -1.6366   -0.4120   -0.0321   0.0138   0.1215   0.5923   0.9027   1.1670   1.3788   
      7    11     79    6.88e-03   -19.1009*  -17.1630*  -14.0627*  -11.3515*  -9.0451*  -8.6373*  -7.9604*  -7.5299*  -6.8632*  -5.0398*  -4.9522*  -4.0375   -3.9859   -3.7177   -3.0907   -2.5709   -2.1796   -1.3294   -0.9194   -0.7123   -0.5584   -0.3227   -0.0980   -0.0022   0.4531   
      8    13     93    4.35e-03   -19.1009*  -17.1629*  -14.0627*  -11.3516*  -9.0451*  -8.6373*  -7.9604*  -7.5299*  -6.8633*  -5.0396*  -4.9521*  -4.1856   -3.9864*  -3.7183*  -3.0999   -2.7833   -2.3165   -2.0546   -1.7080   -1.3180   -1.0971   -0.9424   -0.4511   -0.3841   -0.0204   
      9    13     105   4.20e-03   -19.1009*  -17.1629*  -14.0627*  -11.3515*  -9.0451*  -8.6373*  -7.9604*  -7.5298*  -6.8633*  -5.0395*  -4.9522*  -4.2362   -3.9864*  -3.7185*  -3.1087   -2.8785   -2.5378   -2.3702   -2.1740   -1.8755   -1.6794   -1.3183   -1.0407   -0.7532   -0.5715   
      10   13     117   2.41e-03   -19.1010*  -17.1629*  -14.0627*  -11.3516*  -9.0451*  -8.6373*  -7.9604*  -7.5299*  -6.8633*  -5.0395*  -4.9522*  -4.2510   -3.9864*  -3.7185*  -3.1166   -2.9252   -2.7723   -2.4136   -2.3407   -2.2341   -2.0806   -1.5025   -1.3098   -1.2420   -0.9978   
      11   13     120   1.91e-03   -19.1010*  -17.1629*  -14.0627*  -11.3516*  -9.0451*  -8.6373*  -7.9605*  -7.5299*  -6.8633*  -5.0395*  -4.9522*  -4.2551   -3.9864*  -3.7185*  -3.1213   -2.9498   -2.8077   -2.4198   -2.3492   -2.2650   -2.1257   -1.6869   -1.3642   -1.2530   -1.0173   
      12   13     37    6.17e-04   -19.1009*  -17.1628*  -14.0627*  -11.3515*  -9.0451*  -8.6373*  -7.9605*  -7.5299*  -6.8633*  -5.0395*  -4.9522*  -4.2562   -3.9865*  -3.7186*  -3.1230   -2.9588   -2.8999   -2.4404   -2.3852   -2.3661   -2.2052   -1.9068   -1.4718   -1.3756   -1.0506   
      13   14     49    8.94e-04   -19.1009*  -17.1628*  -14.0627*  -11.3516*  -9.0451*  -8.6373*  -7.9605*  -7.5299*  -6.8633*  -5.0395*  -4.9522*  -4.2566*  -3.9865*  -3.7186*  -3.1242   -2.9804   -2.9548   -2.4559   -2.4465   -2.4011   -2.2633   -2.1083   -1.6489   -1.4370   -1.0992   
      14   14     60    6.09e-04   -19.1009*  -17.1628*  -14.0627*  -11.3516*  -9.0451*  -8.6373*  -7.9605*  -7.5299*  -6.8633*  -5.0395*  -4.9522*  -4.2569*  -3.9865*  -3.7186*  -3.1254   -3.0143   -2.9616   -2.5043   -2.4599   -2.4185   -2.2948   -2.2361   -1.9228   -1.4903   -1.1392   
      15   14     71    4.39e-04   -19.1009*  -17.1629*  -14.0627*  -11.3516*  -9.0451*  -8.6373*  -7.9605*  -7.5299*  -6.8633*  -5.0395*  -4.9522*  -4.2569*  -3.9865*  -3.7186*  -3.1260   -3.0304   -2.9634   -2.5294   -2.4679   -2.4310   -2.3111   -2.2965   -2.1044   -1.5311   -1.1941   
      16   15     82    4.92e-04   -19.1009*  -17.1628*  -14.0627*  -11.3516*  -9.0451*  -8.6373*  -7.9605*  -7.5299*  -6.8633*  -5.0395*  -4.9522*  -4.2569*  -3.9865*  -3.7186*  -3.1258*  -3.0389   -2.9643   -2.5401   -2.4720   -2.4416   -2.3361   -2.3204   -2.1821   -1.5630   -1.3115   
      17   16     92    3.82e-04   -19.1009*  -17.1629*  -14.0627*  -11.3516*  -9.0451*  -8.6373*  -7.9605*  -7.5299*  -6.8633*  -5.0395*  -4.9522*  -4.2569*  -3.9865*  -3.7186*  -3.1260*  -3.0421   -2.9646*  -2.5442   -2.4738   -2.4487   -2.3571   -2.3247   -2.2220   -1.5949   -1.5821   
      18   16     101   2.26e-04   -19.1009*  -17.1628*  -14.0627*  -11.3516*  -9.0451*  -8.6373*  -7.9605*  -7.5299*  -6.8633*  -5.0395*  -4.9522*  -4.2569*  -3.9865*  -3.7186*  -3.1262*  -3.0431   -2.9647*  -2.5481   -2.4746   -2.4525   -2.3709   -2.3266   -2.2476   -1.7534   -1.6280   
      19   18     110   1.94e-04   -19.1008*  -17.1628*  -14.0627*  -11.3516*  -9.0451*  -8.6373*  -7.9605*  -7.5299*  -6.8633*  -5.0395*  -4.9522*  -4.2569*  -3.9865*  -3.7186*  -3.1261*  -3.0436*  -2.9648*  -2.5496   -2.4750*  -2.4548   -2.3794   -2.3275   -2.2623   -1.8299   -1.7152   
      20   19     117   9.69e-05   -19.1008*  -17.1628*  -14.0627*  -11.3516*  -9.0451*  -8.6373*  -7.9605*  -7.5299*  -6.8633*  -5.0395*  -4.9522*  -4.2569*  -3.9865*  -3.7186*  -3.1262*  -3.0437*  -2.9648*  -2.5503   -2.4752*  -2.4557   -2.3837   -2.3277*  -2.2696   -1.8680   -1.7868   
      21   20     120   6.14e-05   -19.1008*  -17.1628*  -14.0627*  -11.3516*  -9.0451*  -8.6373*  -7.9605*  -7.5299*  -6.8633*  -5.0395*  -4.9522*  -4.2569*  -3.9865*  -3.7186*  -3.1262*  -3.0437*  -2.9648*  -2.5507*  -2.4752*  -2.4562   -2.3861   -2.3278*  -2.2727   -1.8847   -1.8191   
      22   22     30    1.43e-05   -19.1009*  -17.1628*  -14.0627*  -11.3516*  -9.0451*  -8.6373*  -7.9605*  -7.5299*  -6.8633*  -5.0395*  -4.9522*  -4.2569*  -3.9865*  -3.7186*  -3.1262*  -3.0438*  -2.9648*  -2.5507*  -2.4752*  -2.4564*  -2.3867*  -2.3278*  -2.2742   -1.8924   -1.8332   
      23   21     33    2.11e-05   -19.1008*  -17.1628*  -14.0627*  -11.3516*  -9.0451*  -8.6373*  -7.9605*  -7.5299*  -6.8633*  -5.0395*  -4.9522*  -4.2569*  -3.9865*  -3.7186*  -3.1262*  -3.0438*  -2.9648*  -2.5508*  -2.4753*  -2.4564*  -2.3872   -2.3278*  -2.2752   -1.8973   -1.8431   
Found complex roots...
      24   22     37    1.11e-05   -19.1008*  -17.1628*  -14.0627*  -11.3516*  -9.0451*  -8.6373*  -7.9605*  -7.5299*  -6.8633*  -5.0395*  -4.9522*  -4.2569*  -3.9865*  -3.7186*  -3.1261*  -3.0438*  -2.9648*  -2.5508*  -2.4753*  -2.4564*  -2.3873*  -2.3278*  -2.2756   -1.8998   -1.8509   
      25   22     40    9.50e-06   -19.1009*  -17.1628*  -14.0627*  -11.3516*  -9.0451*  -8.6373*  -7.9605*  -7.5299*  -6.8633*  -5.0395*  -4.9522*  -4.2569*  -3.9865*  -3.7186*  -3.1261*  -3.0438*  -2.9648*  -2.5508*  -2.4753*  -2.4565*  -2.3874*  -2.3278*  -2.2758   -1.9015   -1.8549   
      26   23     43    5.93e-06   -19.1009*  -17.1628*  -14.0627*  -11.3516*  -9.0451*  -8.6373*  -7.9605*  -7.5299*  -6.8633*  -5.0395*  -4.9522*  -4.2569*  -3.9865*  -3.7186*  -3.1262*  -3.0438*  -2.9648*  -2.5508*  -2.4753*  -2.4565*  -2.3874*  -2.3278*  -2.2761*  -1.9026   -1.8585   
      27   23     45    4.97e-06   -19.1009*  -17.1628*  -14.0627*  -11.3516*  -9.0451*  -8.6373*  -7.9605*  -7.5299*  -6.8633*  -5.0395*  -4.9522*  -4.2569*  -3.9865*  -3.7186*  -3.1262*  -3.0438*  -2.9648*  -2.5508*  -2.4753*  -2.4565*  -2.3875*  -2.3278*  -2.2762*  -1.9034   -1.8607   
      28   23     47    3.89e-06   -19.1009*  -17.1628*  -14.0627*  -11.3516*  -9.0451*  -8.6373*  -7.9605*  -7.5299*  -6.8633*  -5.0395*  -4.9522*  -4.2569*  -3.9865*  -3.7186*  -3.1262*  -3.0438*  -2.9648*  -2.5508*  -2.4753*  -2.4565*  -2.3875*  -2.3278*  -2.2762*  -1.9039   -1.8622   
      29   23     49    3.07e-06   -19.1008*  -17.1628*  -14.0627*  -11.3516*  -9.0451*  -8.6373*  -7.9605*  -7.5299*  -6.8633*  -5.0395*  -4.9522*  -4.2569*  -3.9865*  -3.7186*  -3.1262*  -3.0438*  -2.9648*  -2.5508*  -2.4753*  -2.4565*  -2.3875*  -2.3278*  -2.2762*  -1.9041   -1.8635   
      30   23     51    2.75e-06   -19.1008*  -17.1628*  -14.0627*  -11.3516*  -9.0451*  -8.6373*  -7.9605*  -7.5299*  -6.8633*  -5.0395*  -4.9522*  -4.2569*  -3.9865*  -3.7186*  -3.1262*  -3.0438*  -2.9648*  -2.5508*  -2.4753*  -2.4565*  -2.3875*  -2.3278*  -2.2762*  -1.9043   -1.8646   
      31   24     53    2.32e-06   -19.1008*  -17.1628*  -14.0627*  -11.3516*  -9.0451*  -8.6373*  -7.9605*  -7.5299*  -6.8633*  -5.0395*  -4.9522*  -4.2569*  -3.9865*  -3.7186*  -3.1262*  -3.0438*  -2.9648*  -2.5508*  -2.4753*  -2.4565*  -2.3875*  -2.3278*  -2.2762*  -1.9043*  -1.8652   
      32   24     54    2.31e-06   -19.1008*  -17.1628*  -14.0627*  -11.3516*  -9.0451*  -8.6373*  -7.9605*  -7.5299*  -6.8633*  -5.0395*  -4.9522*  -4.2569*  -3.9865*  -3.7186*  -3.1262*  -3.0438*  -2.9648*  -2.5508*  -2.4753*  -2.4565*  -2.3875*  -2.3278*  -2.2762*  -1.9043*  -1.8658   
      33   24     55    2.12e-06   -19.1008*  -17.1628*  -14.0627*  -11.3516*  -9.0451*  -8.6373*  -7.9605*  -7.5299*  -6.8633*  -5.0395*  -4.9522*  -4.2569*  -3.9865*  -3.7186*  -3.1262*  -3.0438*  -2.9648*  -2.5508*  -2.4753*  -2.4565*  -2.3875*  -2.3278*  -2.2763*  -1.9043*  -1.8663   
      34   25     56    1.90e-06   -19.1008*  -17.1628*  -14.0627*  -11.3516*  -9.0451*  -8.6373*  -7.9605*  -7.5299*  -6.8633*  -5.0395*  -4.9522*  -4.2569*  -3.9865*  -3.7186*  -3.1262*  -3.0438*  -2.9648*  -2.5508*  -2.4753*  -2.4565*  -2.3875*  -2.3278*  -2.2763*  -1.9043*  -1.8666*  

     Davidson procedure converged

 EOMEA transition 1/A
 Total energy = -1399.43240513 a.u.  Excitation energy = -19.1008 eV.
 R1^2 = 0.9427  R2^2 = 0.0573  Res^2 = 3.06e-06
 Conv-d = yes

 Amplitude    Transitions between orbitals
  0.9681       infty       ->    22 (A) B                   
  0.0420       infty       ->    23 (A) B                   
 -0.0346       infty       ->    31 (A) B                   
 -0.0229       infty       ->    41 (A) B                   

              Summary of significant orbitals:

               Number  Type             Irrep      Energy
               40      Vir  Beta       22 (A)     -0.5731
               43      Vir  Beta       23 (A)     -0.5245
               58      Vir  Beta       31 (A)     -0.1478
               76      Vir  Beta       41 (A)      0.1775


 EOMEA transition 2/A
 Total energy = -1399.36118493 a.u.  Excitation energy = -17.1628 eV.
 R1^2 = 0.9401  R2^2 = 0.0599  Res^2 = 4.95e-07
 Conv-d = yes

 Amplitude    Transitions between orbitals
 -0.9658       infty       ->    23 (A) B                   
 -0.0592       infty       ->    24 (A) B                   
  0.0445       infty       ->    22 (A) B                   
 -0.0270       infty       ->    27 (A) B                   

              Summary of significant orbitals:

               Number  Type             Irrep      Energy
               40      Vir  Beta       22 (A)     -0.5731
               43      Vir  Beta       23 (A)     -0.5245
               44      Vir  Beta       24 (A)     -0.4659
               49      Vir  Beta       27 (A)     -0.2771


 EOMEA transition 3/A
 Total energy = -1399.24725751 a.u.  Excitation energy = -14.0627 eV.
 R1^2 = 0.9363  R2^2 = 0.0637  Res^2 = 9.36e-07
 Conv-d = yes

 Amplitude    Transitions between orbitals
 -0.9647       infty       ->    24 (A) B                   
  0.0627       infty       ->    23 (A) B                   
  0.0180       infty       ->    22 (A) B                   
  0.0167       infty       ->    26 (A) B                   

              Summary of significant orbitals:

               Number  Type             Irrep      Energy
               40      Vir  Beta       22 (A)     -0.5731
               43      Vir  Beta       23 (A)     -0.5245
               44      Vir  Beta       24 (A)     -0.4659
               48      Vir  Beta       26 (A)     -0.2975


 EOMEA transition 4/A
 Total energy = -1399.14762440 a.u.  Excitation energy = -11.3516 eV.
 R1^2 = 0.9682  R2^2 = 0.0318  Res^2 = 1.84e-06
 Conv-d = yes

 Amplitude    Transitions between orbitals
 -0.9798       infty       ->    25 (A) B                   
 -0.0662       infty       ->    32 (A) B                   
  0.0299       infty       ->    30 (A) B                   
  0.0208       infty       ->    29 (A) B                   

              Summary of significant orbitals:

               Number  Type             Irrep      Energy
               45      Vir  Beta       25 (A)     -0.3792
               52      Vir  Beta       29 (A)     -0.2409
               55      Vir  Beta       30 (A)     -0.2165
               59      Vir  Beta       32 (A)     -0.1278


 EOMEA transition 5/A
 Total energy = -1399.06286335 a.u.  Excitation energy = -9.0451 eV.
 R1^2 = 0.9683  R2^2 = 0.0317  Res^2 = 7.25e-07
 Conv-d = yes

 Amplitude    Transitions between orbitals
  0.9758       infty       ->    26 (A) B                   
  0.0943       infty       ->    27 (A) B                   
 -0.0376       infty       ->    29 (A) B                   
 -0.0285       infty       ->    45 (A) B                   

              Summary of significant orbitals:

               Number  Type             Irrep      Energy
               48      Vir  Beta       26 (A)     -0.2975
               49      Vir  Beta       27 (A)     -0.2771
               52      Vir  Beta       29 (A)     -0.2409
               82      Vir  Beta       45 (A)      0.2369


 EOMEA transition 6/A
 Total energy = -1399.04787694 a.u.  Excitation energy = -8.6373 eV.
 R1^2 = 0.9599  R2^2 = 0.0401  Res^2 = 1.31e-06
 Conv-d = yes

 Amplitude    Transitions between orbitals
  0.9643       infty       ->    27 (A) B                   
  0.1152       infty       ->    28 (A) B                   
 -0.0960       infty       ->    26 (A) B                   
  0.0394       infty       ->    38 (A) B                   

              Summary of significant orbitals:

               Number  Type             Irrep      Energy
               48      Vir  Beta       26 (A)     -0.2975
               49      Vir  Beta       27 (A)     -0.2771
               51      Vir  Beta       28 (A)     -0.2601
               70      Vir  Beta       38 (A)      0.0715


 EOMEA transition 7/A
 Total energy = -1399.02300519 a.u.  Excitation energy = -7.9605 eV.
 R1^2 = 0.9670  R2^2 = 0.0330  Res^2 = 1.30e-06
 Conv-d = yes

 Amplitude    Transitions between orbitals
 -0.9619       infty       ->    28 (A) B                   
 -0.1355       infty       ->    29 (A) B                   
  0.1197       infty       ->    27 (A) B                   
 -0.0631       infty       ->    31 (A) B                   

              Summary of significant orbitals:

               Number  Type             Irrep      Energy
               49      Vir  Beta       27 (A)     -0.2771
               51      Vir  Beta       28 (A)     -0.2601
               52      Vir  Beta       29 (A)     -0.2409
               58      Vir  Beta       31 (A)     -0.1478


 EOMEA transition 8/A
 Total energy = -1399.00718179 a.u.  Excitation energy = -7.5299 eV.
 R1^2 = 0.9629  R2^2 = 0.0371  Res^2 = 1.95e-06
 Conv-d = yes

 Amplitude    Transitions between orbitals
  0.9526       infty       ->    29 (A) B                   
 -0.1648       infty       ->    30 (A) B                   
 -0.1375       infty       ->    28 (A) B                   
 -0.0390       infty       ->    42 (A) B                   

              Summary of significant orbitals:

               Number  Type             Irrep      Energy
               51      Vir  Beta       28 (A)     -0.2601
               52      Vir  Beta       29 (A)     -0.2409
               55      Vir  Beta       30 (A)     -0.2165
               77      Vir  Beta       42 (A)      0.1923


 EOMEA transition 9/A
 Total energy = -1398.98268455 a.u.  Excitation energy = -6.8633 eV.
 R1^2 = 0.9662  R2^2 = 0.0338  Res^2 = 1.59e-06
 Conv-d = yes

 Amplitude    Transitions between orbitals
 -0.9594       infty       ->    30 (A) B                   
 -0.1671       infty       ->    29 (A) B                   
  0.0703       infty       ->    35 (A) B                   
  0.0641       infty       ->    34 (A) B                   

              Summary of significant orbitals:

               Number  Type             Irrep      Energy
               52      Vir  Beta       29 (A)     -0.2409
               55      Vir  Beta       30 (A)     -0.2165
               61      Vir  Beta       34 (A)     -0.1080
               63      Vir  Beta       35 (A)     -0.0580


 EOMEA transition 10/A
 Total energy = -1398.91566061 a.u.  Excitation energy = -5.0395 eV.
 R1^2 = 0.9590  R2^2 = 0.0410  Res^2 = 2.98e-07
 Conv-d = yes

 Amplitude    Transitions between orbitals
 -0.9642       infty       ->    31 (A) B                   
  0.0740       infty       ->    28 (A) B                   
  0.0731       infty       ->    32 (A) B                   
 -0.0632       infty       ->    36 (A) B                   

              Summary of significant orbitals:

               Number  Type             Irrep      Energy
               51      Vir  Beta       28 (A)     -0.2601
               58      Vir  Beta       31 (A)     -0.1478
               59      Vir  Beta       32 (A)     -0.1278
               66      Vir  Beta       36 (A)      0.0341


 EOMEA transition 11/A
 Total energy = -1398.91245140 a.u.  Excitation energy = -4.9522 eV.
 R1^2 = 0.9550  R2^2 = 0.0450  Res^2 = 1.11e-06
 Conv-d = yes

 Amplitude    Transitions between orbitals
  0.8434       infty       ->    32 (A) B                   
 -0.3202       infty       ->    34 (A) B                   
  0.2895       infty       ->    35 (A) B                   
 -0.1797       infty       ->    33 (A) B                   

              Summary of significant orbitals:

               Number  Type             Irrep      Energy
               59      Vir  Beta       32 (A)     -0.1278
               60      Vir  Beta       33 (A)     -0.1175
               61      Vir  Beta       34 (A)     -0.1080
               63      Vir  Beta       35 (A)     -0.0580


 EOMEA transition 12/A
 Total energy = -1398.88689975 a.u.  Excitation energy = -4.2569 eV.
 R1^2 = 0.0033  R2^2 = 0.9967  Res^2 = 5.01e-07
 Conv-d = yes

 Amplitude    Transitions between orbitals
  0.7071       15 (B) A    ->    22 (A) A      19 (B) B     
 -0.7071       15 (B) A    ->    19 (B) B      22 (A) A     
  0.3764       15 (B) B    ->    22 (A) B      19 (B) B     
 -0.3764       15 (B) B    ->    19 (B) B      22 (A) B     
  0.3307       15 (B) A    ->    19 (B) A      22 (A) B     
 -0.3307       15 (B) A    ->    22 (A) B      19 (B) A     
 -0.2334       16 (B) A    ->    22 (A) A      19 (B) B     
  0.2334       16 (B) A    ->    19 (B) B      22 (A) A     
  0.1736       18 (B) A    ->    22 (A) A      19 (B) B     
 -0.1736       18 (B) A    ->    19 (B) B      22 (A) A     
 -0.1242       16 (B) B    ->    22 (A) B      19 (B) B     
  0.1242       16 (B) B    ->    19 (B) B      22 (A) B     
 -0.1092       16 (B) A    ->    19 (B) A      22 (A) B     
  0.1092       16 (B) A    ->    22 (A) B      19 (B) A     

              Summary of significant orbitals:

               Number  Type             Irrep      Energy
               36      Occ  Alpha      15 (B)     -1.1188
               37      Occ  Alpha      16 (B)     -1.1139
               39      Occ  Alpha      18 (B)     -1.0657
               36      Occ  Beta       15 (B)     -1.1188
               37      Occ  Beta       16 (B)     -1.1139
               40      Vir  Alpha      22 (A)     -0.5731
               41      Vir  Alpha      19 (B)     -0.5698
               40      Vir  Beta       22 (A)     -0.5731
               41      Vir  Beta       19 (B)     -0.5698


 EOMEA transition 13/A
 Total energy = -1398.87696217 a.u.  Excitation energy = -3.9865 eV.
 R1^2 = 0.9688  R2^2 = 0.0312  Res^2 = 1.18e-07
 Conv-d = yes

 Amplitude    Transitions between orbitals
 -0.7663       infty       ->    33 (A) B                   
 -0.5007       infty       ->    34 (A) B                   
 -0.3279       infty       ->    32 (A) B                   
 -0.0996       infty       ->    35 (A) B                   

              Summary of significant orbitals:

               Number  Type             Irrep      Energy
               59      Vir  Beta       32 (A)     -0.1278
               60      Vir  Beta       33 (A)     -0.1175
               61      Vir  Beta       34 (A)     -0.1080
               63      Vir  Beta       35 (A)     -0.0580


 EOMEA transition 14/A
 Total energy = -1398.86711694 a.u.  Excitation energy = -3.7186 eV.
 R1^2 = 0.9732  R2^2 = 0.0268  Res^2 = 2.66e-07
 Conv-d = yes

 Amplitude    Transitions between orbitals
  0.7761       infty       ->    34 (A) B                   
 -0.5813       infty       ->    33 (A) B                   
  0.1681       infty       ->    32 (A) B                   
  0.0295       infty       ->    39 (A) B                   

              Summary of significant orbitals:

               Number  Type             Irrep      Energy
               59      Vir  Beta       32 (A)     -0.1278
               60      Vir  Beta       33 (A)     -0.1175
               61      Vir  Beta       34 (A)     -0.1080
               72      Vir  Beta       39 (A)      0.1012


 EOMEA transition 15/A
 Total energy = -1398.84534635 a.u.  Excitation energy = -3.1262 eV.
 R1^2 = 0.6665  R2^2 = 0.3335  Res^2 = 2.81e-07
 Conv-d = yes

 Amplitude    Transitions between orbitals
  0.7619       infty       ->    35 (A) B                   
 -0.2661       infty       ->    32 (A) B                   
  0.0479       infty       ->    30 (A) B                   
 -0.0359       infty       ->    27 (A) B                   

              Summary of significant orbitals:

               Number  Type             Irrep      Energy
               49      Vir  Beta       27 (A)     -0.2771
               55      Vir  Beta       30 (A)     -0.2165
               59      Vir  Beta       32 (A)     -0.1278
               63      Vir  Beta       35 (A)     -0.0580


 EOMEA transition 16/A
 Total energy = -1398.84231865 a.u.  Excitation energy = -3.0438 eV.
 R1^2 = 0.0371  R2^2 = 0.9629  Res^2 = 1.50e-06
 Conv-d = yes

 Amplitude    Transitions between orbitals
  0.3464       17 (B) A    ->    22 (A) A      22 (B) B     
 -0.3464       17 (B) A    ->    22 (B) B      22 (A) A     
 -0.3265       20 (A) A    ->    22 (A) A      25 (A) B     
  0.3265       20 (A) A    ->    25 (A) B      22 (A) A     
 -0.3074       17 (B) A    ->    22 (A) A      21 (B) B     
  0.3074       17 (B) A    ->    21 (B) B      22 (A) A     
 -0.2175       19 (A) A    ->    22 (A) A      25 (A) B     
  0.2175       19 (A) A    ->    25 (A) B      22 (A) A     
 -0.2143       20 (A) A    ->    22 (A) A      27 (A) B     
  0.2143       20 (A) A    ->    27 (A) B      22 (A) A     
  0.1969       14 (B) A    ->    22 (A) A      22 (B) B     
 -0.1969       14 (B) A    ->    22 (B) B      22 (A) A     
  0.1799       17 (B) A    ->    22 (B) A      22 (A) B     
 -0.1799       17 (B) A    ->    22 (A) B      22 (B) A     
  0.1665       17 (B) B    ->    22 (A) B      22 (B) B     
 -0.1665       17 (B) B    ->    22 (B) B      22 (A) B     
 -0.1665       20 (A) A    ->    25 (A) A      22 (A) B     
  0.1665       20 (A) A    ->    22 (A) B      25 (A) A     
 -0.1614       17 (B) A    ->    21 (B) A      22 (A) B     
  0.1614       17 (B) A    ->    22 (A) B      21 (B) A     
 -0.1600       20 (A) B    ->    22 (A) B      25 (A) B     
  0.1600       20 (A) B    ->    25 (A) B      22 (A) B     
 -0.1534       14 (B) A    ->    22 (A) A      21 (B) B     
  0.1534       14 (B) A    ->    21 (B) B      22 (A) A     
 -0.1461       17 (B) B    ->    22 (A) B      21 (B) B     
  0.1461       17 (B) B    ->    21 (B) B      22 (A) B     
 -0.1231       21 (A) A    ->    22 (A) A      25 (A) B     
  0.1231       21 (A) A    ->    25 (A) B      22 (A) A     
 -0.1179       19 (A) A    ->    25 (A) A      22 (A) B     
  0.1179       19 (A) A    ->    22 (A) B      25 (A) A     
 -0.1151       20 (A) A    ->    27 (A) A      22 (A) B     
  0.1151       20 (A) A    ->    22 (A) B      27 (A) A     
 -0.1112       19 (A) A    ->    22 (A) A      27 (A) B     
  0.1112       19 (A) A    ->    27 (A) B      22 (A) A     
 -0.1077       20 (A) A    ->    22 (A) A      26 (A) B     
  0.1077       20 (A) A    ->    26 (A) B      22 (A) A     
  0.1043       14 (B) A    ->    22 (B) A      22 (A) B     
 -0.1043       14 (B) A    ->    22 (A) B      22 (B) A     

              Summary of significant orbitals:

               Number  Type             Irrep      Energy
               33      Occ  Alpha      19 (A)     -1.1387
               34      Occ  Alpha      20 (A)     -1.1256
               35      Occ  Alpha      21 (A)     -1.1233
               32      Occ  Alpha      14 (B)     -1.1544
               38      Occ  Alpha      17 (B)     -1.0915
               34      Occ  Beta       20 (A)     -1.1256
               38      Occ  Beta       17 (B)     -1.0915
               40      Vir  Alpha      22 (A)     -0.5731
               45      Vir  Alpha      25 (A)     -0.3792
               49      Vir  Alpha      27 (A)     -0.2771
               46      Vir  Alpha      21 (B)     -0.3333
               47      Vir  Alpha      22 (B)     -0.3160
               40      Vir  Beta       22 (A)     -0.5731
               45      Vir  Beta       25 (A)     -0.3792
               48      Vir  Beta       26 (A)     -0.2975
               49      Vir  Beta       27 (A)     -0.2771
               46      Vir  Beta       21 (B)     -0.3333
               47      Vir  Beta       22 (B)     -0.3160


 EOMEA transition 17/A
 Total energy = -1398.83941556 a.u.  Excitation energy = -2.9648 eV.
 R1^2 = 0.3386  R2^2 = 0.6614  Res^2 = 4.53e-07
 Conv-d = yes

 Amplitude    Transitions between orbitals
 -0.2729       16 (B) A    ->    22 (A) A      21 (B) B     
  0.2729       16 (B) A    ->    21 (B) B      22 (A) A     
 -0.2255       20 (A) A    ->    22 (A) A      25 (A) B     
  0.2255       20 (A) A    ->    25 (A) B      22 (A) A     
 -0.2198       16 (B) A    ->    21 (B) A      22 (A) B     
  0.2198       16 (B) A    ->    22 (A) B      21 (B) A     
  0.1959       21 (A) A    ->    22 (A) A      25 (A) B     
 -0.1959       21 (A) A    ->    25 (A) B      22 (A) A     
 -0.1951       16 (B) A    ->    22 (A) A      22 (B) B     
  0.1951       16 (B) A    ->    22 (B) B      22 (A) A     
 -0.1647       20 (A) A    ->    25 (A) A      22 (A) B     
  0.1647       20 (A) A    ->    22 (A) B      25 (A) A     
  0.1625       21 (A) A    ->    25 (A) A      22 (A) B     
 -0.1625       21 (A) A    ->    22 (A) B      25 (A) A     
 -0.1558       16 (B) A    ->    22 (B) A      22 (A) B     
  0.1558       16 (B) A    ->    22 (A) B      22 (B) A     
  0.1503       19 (A) A    ->    22 (A) A      25 (A) B     
 -0.1503       19 (A) A    ->    25 (A) B      22 (A) A     
 -0.1375       21 (A) A    ->    22 (A) A      27 (A) B     
  0.1375       21 (A) A    ->    27 (A) B      22 (A) A     
  0.1343       19 (A) A    ->    25 (A) A      22 (A) B     
 -0.1343       19 (A) A    ->    22 (A) B      25 (A) A     
 -0.1339       19 (A) A    ->    22 (A) A      27 (A) B     
  0.1339       19 (A) A    ->    27 (A) B      22 (A) A     
 -0.1085       21 (A) A    ->    27 (A) A      22 (A) B     
  0.1085       21 (A) A    ->    22 (A) B      27 (A) A     
 -0.1082       14 (B) A    ->    22 (A) A      21 (B) B     
  0.1082       14 (B) A    ->    21 (B) B      22 (A) A     
 -0.1042       19 (A) A    ->    27 (A) A      22 (A) B     
  0.1042       19 (A) A    ->    22 (A) B      27 (A) A     

              Summary of significant orbitals:

               Number  Type             Irrep      Energy
               33      Occ  Alpha      19 (A)     -1.1387
               34      Occ  Alpha      20 (A)     -1.1256
               35      Occ  Alpha      21 (A)     -1.1233
               32      Occ  Alpha      14 (B)     -1.1544
               37      Occ  Alpha      16 (B)     -1.1139
               40      Vir  Alpha      22 (A)     -0.5731
               45      Vir  Alpha      25 (A)     -0.3792
               49      Vir  Alpha      27 (A)     -0.2771
               46      Vir  Alpha      21 (B)     -0.3333
               47      Vir  Alpha      22 (B)     -0.3160
               40      Vir  Beta       22 (A)     -0.5731
               45      Vir  Beta       25 (A)     -0.3792
               49      Vir  Beta       27 (A)     -0.2771
               46      Vir  Beta       21 (B)     -0.3333
               47      Vir  Beta       22 (B)     -0.3160


 EOMEA transition 18/A
 Total energy = -1398.82420339 a.u.  Excitation energy = -2.5508 eV.
 R1^2 = 0.0018  R2^2 = 0.9982  Res^2 = 1.59e-06
 Conv-d = yes

 Amplitude    Transitions between orbitals
 -0.5445       15 (B) A    ->    25 (A) A      19 (B) B     
  0.5445       15 (B) A    ->    19 (B) B      25 (A) A     
 -0.2806       15 (B) A    ->    24 (A) A      19 (B) B     
  0.2806       15 (B) A    ->    19 (B) B      24 (A) A     
 -0.2746       15 (B) A    ->    19 (B) A      25 (A) B     
  0.2746       15 (B) A    ->    25 (A) B      19 (B) A     
 -0.2699       15 (B) B    ->    25 (A) B      19 (B) B     
  0.2699       15 (B) B    ->    19 (B) B      25 (A) B     
  0.1847       16 (B) A    ->    25 (A) A      19 (B) B     
 -0.1847       16 (B) A    ->    19 (B) B      25 (A) A     
 -0.1634       17 (B) A    ->    25 (A) A      20 (B) B     
  0.1634       17 (B) A    ->    20 (B) B      25 (A) A     
  0.1570       14 (B) A    ->    25 (A) A      20 (B) B     
 -0.1570       14 (B) A    ->    20 (B) B      25 (A) A     
 -0.1520       15 (B) A    ->    19 (B) A      24 (A) B     
  0.1520       15 (B) A    ->    24 (A) B      19 (B) A     
 -0.1500       18 (B) A    ->    25 (A) A      19 (B) B     
  0.1500       18 (B) A    ->    19 (B) B      25 (A) A     
  0.1472       18 (A) A    ->    19 (B) A      19 (B) B     
 -0.1472       18 (A) A    ->    19 (B) B      19 (B) A     
 -0.1286       15 (B) B    ->    24 (A) B      19 (B) B     
  0.1286       15 (B) B    ->    19 (B) B      24 (A) B     
  0.1228       19 (A) A    ->    19 (B) A      19 (B) B     
 -0.1228       19 (A) A    ->    19 (B) B      19 (B) A     
 -0.1148       21 (A) A    ->    19 (B) A      19 (B) B     
  0.1148       21 (A) A    ->    19 (B) B      19 (B) A     
 -0.1140       15 (B) A    ->    22 (A) A      20 (B) B     
  0.1140       15 (B) A    ->    20 (B) B      22 (A) A     

              Summary of significant orbitals:

               Number  Type             Irrep      Energy
               30      Occ  Alpha      18 (A)     -1.2152
               33      Occ  Alpha      19 (A)     -1.1387
               35      Occ  Alpha      21 (A)     -1.1233
               32      Occ  Alpha      14 (B)     -1.1544
               36      Occ  Alpha      15 (B)     -1.1188
               37      Occ  Alpha      16 (B)     -1.1139
               38      Occ  Alpha      17 (B)     -1.0915
               39      Occ  Alpha      18 (B)     -1.0657
               36      Occ  Beta       15 (B)     -1.1188
               40      Vir  Alpha      22 (A)     -0.5731
               44      Vir  Alpha      24 (A)     -0.4659
               45      Vir  Alpha      25 (A)     -0.3792
               41      Vir  Alpha      19 (B)     -0.5698
               44      Vir  Beta       24 (A)     -0.4659
               45      Vir  Beta       25 (A)     -0.3792
               41      Vir  Beta       19 (B)     -0.5698
               42      Vir  Beta       20 (B)     -0.5492


 EOMEA transition 19/A
 Total energy = -1398.82142659 a.u.  Excitation energy = -2.4753 eV.
 R1^2 = 0.0015  R2^2 = 0.9985  Res^2 = 2.54e-06
 Conv-d = yes

 Amplitude    Transitions between orbitals
  0.4964       18 (A) A    ->    19 (B) A      19 (B) B     
 -0.4964       18 (A) A    ->    19 (B) B      19 (B) A     
  0.4027       19 (A) A    ->    19 (B) A      19 (B) B     
 -0.4027       19 (A) A    ->    19 (B) B      19 (B) A     
 -0.3864       21 (A) A    ->    19 (B) A      19 (B) B     
  0.3864       21 (A) A    ->    19 (B) B      19 (B) A     
  0.2634       15 (B) A    ->    23 (A) A      19 (B) B     
 -0.2634       15 (B) A    ->    19 (B) B      23 (A) A     
 -0.2172       14 (B) A    ->    22 (A) A      19 (B) B     
  0.2172       14 (B) A    ->    19 (B) B      22 (A) A     
  0.1939       17 (B) A    ->    22 (A) A      19 (B) B     
 -0.1939       17 (B) A    ->    19 (B) B      22 (A) A     
 -0.1644       14 (B) B    ->    22 (A) B      19 (B) B     
  0.1644       14 (B) B    ->    19 (B) B      22 (A) B     
  0.1643       15 (B) A    ->    22 (A) A      20 (B) B     
 -0.1643       15 (B) A    ->    20 (B) B      22 (A) A     
  0.1469       17 (B) B    ->    22 (A) B      19 (B) B     
 -0.1469       17 (B) B    ->    19 (B) B      22 (A) B     
  0.1381       15 (B) B    ->    23 (A) B      19 (B) B     
 -0.1381       15 (B) B    ->    19 (B) B      23 (A) B     
  0.1253       15 (B) A    ->    19 (B) A      23 (A) B     
 -0.1253       15 (B) A    ->    23 (A) B      19 (B) A     
  0.1086       15 (B) B    ->    22 (A) B      20 (B) B     
 -0.1086       15 (B) B    ->    20 (B) B      22 (A) B     

              Summary of significant orbitals:

               Number  Type             Irrep      Energy
               30      Occ  Alpha      18 (A)     -1.2152
               33      Occ  Alpha      19 (A)     -1.1387
               35      Occ  Alpha      21 (A)     -1.1233
               32      Occ  Alpha      14 (B)     -1.1544
               36      Occ  Alpha      15 (B)     -1.1188
               38      Occ  Alpha      17 (B)     -1.0915
               32      Occ  Beta       14 (B)     -1.1544
               36      Occ  Beta       15 (B)     -1.1188
               38      Occ  Beta       17 (B)     -1.0915
               40      Vir  Alpha      22 (A)     -0.5731
               43      Vir  Alpha      23 (A)     -0.5245
               41      Vir  Alpha      19 (B)     -0.5698
               40      Vir  Beta       22 (A)     -0.5731
               43      Vir  Beta       23 (A)     -0.5245
               41      Vir  Beta       19 (B)     -0.5698
               42      Vir  Beta       20 (B)     -0.5492


 EOMEA transition 20/A
 Total energy = -1398.82073628 a.u.  Excitation energy = -2.4565 eV.
 R1^2 = 0.0014  R2^2 = 0.9986  Res^2 = 1.18e-06
 Conv-d = yes

 Amplitude    Transitions between orbitals
  0.3826       18 (A) A    ->    19 (B) A      19 (B) B     
 -0.3826       18 (A) A    ->    19 (B) B      19 (B) A     
  0.3162       19 (A) A    ->    19 (B) A      19 (B) B     
 -0.3162       19 (A) A    ->    19 (B) B      19 (B) A     
 -0.2967       21 (A) A    ->    19 (B) A      19 (B) B     
  0.2967       21 (A) A    ->    19 (B) B      19 (B) A     
  0.2958       14 (B) A    ->    22 (A) A      19 (B) B     
 -0.2958       14 (B) A    ->    19 (B) B      22 (A) A     
 -0.2709       15 (B) A    ->    23 (A) A      19 (B) B     
  0.2709       15 (B) A    ->    19 (B) B      23 (A) A     
 -0.2641       17 (B) A    ->    22 (A) A      19 (B) B     
  0.2641       17 (B) A    ->    19 (B) B      22 (A) A     
 -0.2108       15 (B) A    ->    22 (A) A      20 (B) B     
  0.2108       15 (B) A    ->    20 (B) B      22 (A) A     
  0.1943       15 (B) A    ->    25 (A) A      19 (B) B     
 -0.1943       15 (B) A    ->    19 (B) B      25 (A) A     
 -0.1798       15 (B) B    ->    23 (A) B      19 (B) B     
  0.1798       15 (B) B    ->    19 (B) B      23 (A) B     
  0.1712       14 (B) B    ->    22 (A) B      19 (B) B     
 -0.1712       14 (B) B    ->    19 (B) B      22 (A) B     
 -0.1595       15 (B) B    ->    22 (A) B      20 (B) B     
  0.1595       15 (B) B    ->    20 (B) B      22 (A) B     
 -0.1557       17 (B) B    ->    22 (A) B      19 (B) B     
  0.1557       17 (B) B    ->    19 (B) B      22 (A) B     
  0.1246       14 (B) A    ->    19 (B) A      22 (A) B     
 -0.1246       14 (B) A    ->    22 (A) B      19 (B) A     
 -0.1084       17 (B) A    ->    19 (B) A      22 (A) B     
  0.1084       17 (B) A    ->    22 (A) B      19 (B) A     
  0.1015       15 (B) A    ->    19 (B) A      25 (A) B     
 -0.1015       15 (B) A    ->    25 (A) B      19 (B) A     

              Summary of significant orbitals:

               Number  Type             Irrep      Energy
               30      Occ  Alpha      18 (A)     -1.2152
               33      Occ  Alpha      19 (A)     -1.1387
               35      Occ  Alpha      21 (A)     -1.1233
               32      Occ  Alpha      14 (B)     -1.1544
               36      Occ  Alpha      15 (B)     -1.1188
               38      Occ  Alpha      17 (B)     -1.0915
               32      Occ  Beta       14 (B)     -1.1544
               36      Occ  Beta       15 (B)     -1.1188
               38      Occ  Beta       17 (B)     -1.0915
               40      Vir  Alpha      22 (A)     -0.5731
               43      Vir  Alpha      23 (A)     -0.5245
               45      Vir  Alpha      25 (A)     -0.3792
               41      Vir  Alpha      19 (B)     -0.5698
               40      Vir  Beta       22 (A)     -0.5731
               43      Vir  Beta       23 (A)     -0.5245
               45      Vir  Beta       25 (A)     -0.3792
               41      Vir  Beta       19 (B)     -0.5698
               42      Vir  Beta       20 (B)     -0.5492


 EOMEA transition 21/A
 Total energy = -1398.81820067 a.u.  Excitation energy = -2.3875 eV.
 R1^2 = 0.0065  R2^2 = 0.9935  Res^2 = 4.04e-06
 Conv-d = yes

 Amplitude    Transitions between orbitals
 -0.3354       16 (B) B    ->    22 (A) B      21 (B) B     
  0.3354       16 (B) B    ->    21 (B) B      22 (A) B     
  0.2823       21 (A) B    ->    22 (A) B      25 (A) B     
 -0.2823       21 (A) B    ->    25 (A) B      22 (A) B     
  0.2666       19 (A) B    ->    22 (A) B      25 (A) B     
 -0.2666       19 (A) B    ->    25 (A) B      22 (A) B     
  0.2446       16 (B) A    ->    21 (B) A      22 (A) B     
 -0.2446       16 (B) A    ->    22 (A) B      21 (B) A     
 -0.2163       16 (B) B    ->    22 (A) B      22 (B) B     
  0.2163       16 (B) B    ->    22 (B) B      22 (A) B     
 -0.2145       21 (A) A    ->    25 (A) A      22 (A) B     
  0.2145       21 (A) A    ->    22 (A) B      25 (A) A     
 -0.2129       19 (A) A    ->    25 (A) A      22 (A) B     
  0.2129       19 (A) A    ->    22 (A) B      25 (A) A     
  0.1543       20 (A) B    ->    22 (A) B      27 (A) B     
 -0.1543       20 (A) B    ->    27 (A) B      22 (A) B     
  0.1541       16 (B) A    ->    22 (B) A      22 (A) B     
 -0.1541       16 (B) A    ->    22 (A) B      22 (B) A     
 -0.1349       21 (A) B    ->    22 (A) B      27 (A) B     
  0.1349       21 (A) B    ->    27 (A) B      22 (A) B     
 -0.1235       20 (A) A    ->    27 (A) A      22 (A) B     
  0.1235       20 (A) A    ->    22 (A) B      27 (A) A     
 -0.1222       15 (B) B    ->    22 (A) B      21 (B) B     
  0.1222       15 (B) B    ->    21 (B) B      22 (A) B     
 -0.1217       15 (B) A    ->    23 (A) A      19 (B) B     
  0.1217       15 (B) A    ->    19 (B) B      23 (A) A     
 -0.1202       20 (A) B    ->    22 (A) B      25 (A) B     
  0.1202       20 (A) B    ->    25 (A) B      22 (A) B     
  0.1115       15 (B) A    ->    25 (A) A      19 (B) B     
 -0.1115       15 (B) A    ->    19 (B) B      25 (A) A     
  0.1095       15 (B) A    ->    22 (A) A      20 (B) B     
 -0.1095       15 (B) A    ->    20 (B) B      22 (A) A     
 -0.1066       19 (A) B    ->    22 (A) B      27 (A) B     
  0.1066       19 (A) B    ->    27 (A) B      22 (A) B     

              Summary of significant orbitals:

               Number  Type             Irrep      Energy
               33      Occ  Alpha      19 (A)     -1.1387
               34      Occ  Alpha      20 (A)     -1.1256
               35      Occ  Alpha      21 (A)     -1.1233
               36      Occ  Alpha      15 (B)     -1.1188
               37      Occ  Alpha      16 (B)     -1.1139
               33      Occ  Beta       19 (A)     -1.1387
               34      Occ  Beta       20 (A)     -1.1256
               35      Occ  Beta       21 (A)     -1.1233
               36      Occ  Beta       15 (B)     -1.1188
               37      Occ  Beta       16 (B)     -1.1139
               40      Vir  Alpha      22 (A)     -0.5731
               43      Vir  Alpha      23 (A)     -0.5245
               45      Vir  Alpha      25 (A)     -0.3792
               49      Vir  Alpha      27 (A)     -0.2771
               46      Vir  Alpha      21 (B)     -0.3333
               47      Vir  Alpha      22 (B)     -0.3160
               40      Vir  Beta       22 (A)     -0.5731
               45      Vir  Beta       25 (A)     -0.3792
               49      Vir  Beta       27 (A)     -0.2771
               41      Vir  Beta       19 (B)     -0.5698
               42      Vir  Beta       20 (B)     -0.5492
               46      Vir  Beta       21 (B)     -0.3333
               47      Vir  Beta       22 (B)     -0.3160


 EOMEA transition 22/A
 Total energy = -1398.81600806 a.u.  Excitation energy = -2.3278 eV.
 R1^2 = 0.0021  R2^2 = 0.9979  Res^2 = 9.41e-07
 Conv-d = yes

 Amplitude    Transitions between orbitals
  0.5442       15 (B) A    ->    23 (A) A      19 (B) B     
 -0.5442       15 (B) A    ->    19 (B) B      23 (A) A     
 -0.2808       15 (B) A    ->    22 (A) A      20 (B) B     
  0.2808       15 (B) A    ->    20 (B) B      22 (A) A     
  0.2727       15 (B) B    ->    23 (A) B      19 (B) B     
 -0.2727       15 (B) B    ->    19 (B) B      23 (A) B     
  0.2715       15 (B) A    ->    19 (B) A      23 (A) B     
 -0.2715       15 (B) A    ->    23 (A) B      19 (B) A     
 -0.1923       15 (B) A    ->    20 (B) A      22 (A) B     
  0.1923       15 (B) A    ->    22 (A) B      20 (B) A     
  0.1871       14 (B) A    ->    22 (A) A      19 (B) B     
 -0.1871       14 (B) A    ->    19 (B) B      22 (A) A     
 -0.1862       16 (B) A    ->    23 (A) A      19 (B) B     
  0.1862       16 (B) A    ->    19 (B) B      23 (A) A     
 -0.1684       17 (B) A    ->    22 (A) A      19 (B) B     
  0.1684       17 (B) A    ->    19 (B) B      22 (A) A     
  0.1336       18 (B) A    ->    23 (A) A      19 (B) B     
 -0.1336       18 (B) A    ->    19 (B) B      23 (A) A     
  0.1194       14 (B) B    ->    22 (A) B      19 (B) B     
 -0.1194       14 (B) B    ->    19 (B) B      22 (A) B     
 -0.1110       17 (B) B    ->    22 (A) B      19 (B) B     
  0.1110       17 (B) B    ->    19 (B) B      22 (A) B     
  0.1083       15 (B) A    ->    25 (A) A      19 (B) B     
 -0.1083       15 (B) A    ->    19 (B) B      25 (A) A     

              Summary of significant orbitals:

               Number  Type             Irrep      Energy
               32      Occ  Alpha      14 (B)     -1.1544
               36      Occ  Alpha      15 (B)     -1.1188
               37      Occ  Alpha      16 (B)     -1.1139
               38      Occ  Alpha      17 (B)     -1.0915
               39      Occ  Alpha      18 (B)     -1.0657
               32      Occ  Beta       14 (B)     -1.1544
               36      Occ  Beta       15 (B)     -1.1188
               38      Occ  Beta       17 (B)     -1.0915
               40      Vir  Alpha      22 (A)     -0.5731
               43      Vir  Alpha      23 (A)     -0.5245
               45      Vir  Alpha      25 (A)     -0.3792
               41      Vir  Alpha      19 (B)     -0.5698
               42      Vir  Alpha      20 (B)     -0.5492
               40      Vir  Beta       22 (A)     -0.5731
               43      Vir  Beta       23 (A)     -0.5245
               41      Vir  Beta       19 (B)     -0.5698
               42      Vir  Beta       20 (B)     -0.5492


 EOMEA transition 23/A
 Total energy = -1398.81411350 a.u.  Excitation energy = -2.2763 eV.
 R1^2 = 0.0014  R2^2 = 0.9986  Res^2 = 4.10e-06
 Conv-d = yes

 Amplitude    Transitions between orbitals
 -0.3698       20 (A) B    ->    22 (A) B      25 (A) B     
  0.3698       20 (A) B    ->    25 (A) B      22 (A) B     
  0.3456       20 (A) A    ->    25 (A) A      22 (A) B     
 -0.3456       20 (A) A    ->    22 (A) B      25 (A) A     
  0.3093       17 (B) B    ->    22 (A) B      22 (B) B     
 -0.3093       17 (B) B    ->    22 (B) B      22 (A) B     
 -0.2952       17 (B) A    ->    22 (B) A      22 (A) B     
  0.2952       17 (B) A    ->    22 (A) B      22 (B) A     
 -0.2609       17 (B) B    ->    22 (A) B      21 (B) B     
  0.2609       17 (B) B    ->    21 (B) B      22 (A) B     
  0.2559       17 (B) A    ->    21 (B) A      22 (A) B     
 -0.2559       17 (B) A    ->    22 (A) B      21 (B) A     
 -0.1651       14 (B) B    ->    22 (A) B      21 (B) B     
  0.1651       14 (B) B    ->    21 (B) B      22 (A) B     
  0.1520       14 (B) A    ->    21 (B) A      22 (A) B     
 -0.1520       14 (B) A    ->    22 (A) B      21 (B) A     
 -0.1416       19 (A) B    ->    22 (A) B      27 (A) B     
  0.1416       19 (A) B    ->    27 (A) B      22 (A) B     
 -0.1400       14 (B) A    ->    22 (B) A      22 (A) B     
  0.1400       14 (B) A    ->    22 (A) B      22 (B) A     
  0.1391       14 (B) B    ->    22 (A) B      22 (B) B     
 -0.1391       14 (B) B    ->    22 (B) B      22 (A) B     
  0.1325       20 (A) A    ->    27 (A) A      22 (A) B     
 -0.1325       20 (A) A    ->    22 (A) B      27 (A) A     
 -0.1317       20 (A) B    ->    22 (A) B      27 (A) B     
  0.1317       20 (A) B    ->    27 (A) B      22 (A) B     
  0.1293       19 (A) A    ->    27 (A) A      22 (A) B     
 -0.1293       19 (A) A    ->    22 (A) B      27 (A) A     
  0.1183       19 (A) A    ->    25 (A) A      22 (A) B     
 -0.1183       19 (A) A    ->    22 (A) B      25 (A) A     
 -0.1119       19 (A) B    ->    22 (A) B      25 (A) B     
  0.1119       19 (A) B    ->    25 (A) B      22 (A) B     

              Summary of significant orbitals:

               Number  Type             Irrep      Energy
               33      Occ  Alpha      19 (A)     -1.1387
               34      Occ  Alpha      20 (A)     -1.1256
               32      Occ  Alpha      14 (B)     -1.1544
               38      Occ  Alpha      17 (B)     -1.0915
               33      Occ  Beta       19 (A)     -1.1387
               34      Occ  Beta       20 (A)     -1.1256
               32      Occ  Beta       14 (B)     -1.1544
               38      Occ  Beta       17 (B)     -1.0915
               45      Vir  Alpha      25 (A)     -0.3792
               49      Vir  Alpha      27 (A)     -0.2771
               46      Vir  Alpha      21 (B)     -0.3333
               47      Vir  Alpha      22 (B)     -0.3160
               40      Vir  Beta       22 (A)     -0.5731
               45      Vir  Beta       25 (A)     -0.3792
               49      Vir  Beta       27 (A)     -0.2771
               46      Vir  Beta       21 (B)     -0.3333
               47      Vir  Beta       22 (B)     -0.3160


 EOMEA transition 24/A
 Total energy = -1398.80044566 a.u.  Excitation energy = -1.9043 eV.
 R1^2 = 0.0001  R2^2 = 0.9999  Res^2 = 8.26e-06
 Conv-d = yes

 Amplitude    Transitions between orbitals
  0.5136       15 (B) B    ->    22 (A) B      20 (B) B     
 -0.5136       15 (B) B    ->    20 (B) B      22 (A) B     
  0.3513       14 (B) B    ->    22 (A) B      19 (B) B     
 -0.3513       14 (B) B    ->    19 (B) B      22 (A) B     
 -0.3345       15 (B) A    ->    20 (B) A      22 (A) B     
  0.3345       15 (B) A    ->    22 (A) B      20 (B) A     
 -0.3193       17 (B) B    ->    22 (A) B      19 (B) B     
  0.3193       17 (B) B    ->    19 (B) B      22 (A) B     
 -0.3006       14 (B) A    ->    19 (B) A      22 (A) B     
  0.3006       14 (B) A    ->    22 (A) B      19 (B) A     
  0.2702       17 (B) A    ->    19 (B) A      22 (A) B     
 -0.2702       17 (B) A    ->    22 (A) B      19 (B) A     
  0.1791       15 (B) A    ->    22 (A) A      20 (B) B     
 -0.1791       15 (B) A    ->    20 (B) B      22 (A) A     
 -0.1622       16 (B) B    ->    22 (A) B      20 (B) B     
  0.1622       16 (B) B    ->    20 (B) B      22 (A) B     
  0.1233       18 (B) B    ->    22 (A) B      20 (B) B     
 -0.1233       18 (B) B    ->    20 (B) B      22 (A) B     
 -0.1100       16 (B) B    ->    22 (A) B      19 (B) B     
  0.1100       16 (B) B    ->    19 (B) B      22 (A) B     
  0.1029       16 (B) A    ->    20 (B) A      22 (A) B     
 -0.1029       16 (B) A    ->    22 (A) B      20 (B) A     

              Summary of significant orbitals:

               Number  Type             Irrep      Energy
               32      Occ  Alpha      14 (B)     -1.1544
               36      Occ  Alpha      15 (B)     -1.1188
               37      Occ  Alpha      16 (B)     -1.1139
               38      Occ  Alpha      17 (B)     -1.0915
               32      Occ  Beta       14 (B)     -1.1544
               36      Occ  Beta       15 (B)     -1.1188
               37      Occ  Beta       16 (B)     -1.1139
               38      Occ  Beta       17 (B)     -1.0915
               39      Occ  Beta       18 (B)     -1.0657
               40      Vir  Alpha      22 (A)     -0.5731
               41      Vir  Alpha      19 (B)     -0.5698
               42      Vir  Alpha      20 (B)     -0.5492
               40      Vir  Beta       22 (A)     -0.5731
               41      Vir  Beta       19 (B)     -0.5698
               42      Vir  Beta       20 (B)     -0.5492


 EOMEA transition 25/A
 Total energy = -1398.79905938 a.u.  Excitation energy = -1.8666 eV.
 R1^2 = 0.0006  R2^2 = 0.9994  Res^2 = 7.20e-06
 Conv-d = yes

 Amplitude    Transitions between orbitals
  0.4980       18 (A) A    ->    20 (B) A      19 (B) B     
 -0.4980       18 (A) A    ->    19 (B) B      20 (B) A     
  0.3977       19 (A) A    ->    20 (B) A      19 (B) B     
 -0.3977       19 (A) A    ->    19 (B) B      20 (B) A     
 -0.3847       21 (A) A    ->    20 (B) A      19 (B) B     
  0.3847       21 (A) A    ->    19 (B) B      20 (B) A     
  0.3357       18 (A) A    ->    19 (B) A      20 (B) B     
 -0.3357       18 (A) A    ->    20 (B) B      19 (B) A     
  0.2679       19 (A) A    ->    19 (B) A      20 (B) B     
 -0.2679       19 (A) A    ->    20 (B) B      19 (B) A     
 -0.2581       21 (A) A    ->    19 (B) A      20 (B) B     
  0.2581       21 (A) A    ->    20 (B) B      19 (B) A     
 -0.1624       18 (A) B    ->    19 (B) B      20 (B) B     
  0.1624       18 (A) B    ->    20 (B) B      19 (B) B     
 -0.1298       19 (A) B    ->    19 (B) B      20 (B) B     
  0.1298       19 (A) B    ->    20 (B) B      19 (B) B     
  0.1266       21 (A) B    ->    19 (B) B      20 (B) B     
 -0.1266       21 (A) B    ->    20 (B) B      19 (B) B     

              Summary of significant orbitals:

               Number  Type             Irrep      Energy
               30      Occ  Alpha      18 (A)     -1.2152
               33      Occ  Alpha      19 (A)     -1.1387
               35      Occ  Alpha      21 (A)     -1.1233
               30      Occ  Beta       18 (A)     -1.2152
               33      Occ  Beta       19 (A)     -1.1387
               35      Occ  Beta       21 (A)     -1.1233
               41      Vir  Alpha      19 (B)     -0.5698
               42      Vir  Alpha      20 (B)     -0.5492
               41      Vir  Beta       19 (B)     -0.5698
[...]
   202   -9.568774873415e-02
   203   -3.832584146024e-01
   204    3.862207614862e-03
   205   -1.656087131924e-03
   206   -6.145715225641e-04
   207   -1.126726931841e-02
   208   -2.784434030429e-02
   209   -3.078953701132e-01
   210   -4.671016125440e-03
   211    6.373257697644e-03
   212    1.234044031741e-03
   213    1.234453753619e-02
   214    4.883836708871e-02
   215    4.358822434373e-01
   216    1.685014226975e-03
   217   -3.611771365431e-03
   218    7.318753544117e-03
   219   -2.559851803424e-02
   220    1.596257862306e-02
   221   -1.136428992687e+00
   222   -4.217552317611e-03
   223    1.642443072171e-02
   224    2.261963327842e-02
   225   -2.032521425599e-02
   226   -9.568774873417e-02
   227   -3.832584146028e-01
   228   -3.862207614865e-03
   229    1.656087131925e-03
   230   -6.145715225642e-04
   231   -1.126726931840e-02
   232   -2.784434030428e-02
   233   -3.078953701127e-01
   234    4.671016125434e-03
   235   -6.373257697628e-03
   236    1.234044031750e-03
   237    1.234453753617e-02
   238    4.883836708870e-02
   239    4.358822434368e-01
   240   -1.685014226964e-03
   241    3.611771365417e-03
   242    7.318753544100e-03
   243   -2.559851803423e-02
   244    1.596257862310e-02
   245   -1.136428992687e+00
   246    4.217552317612e-03
   247   -1.642443072172e-02
   248    2.261963327843e-02
   249    1.222546599692e-02
   250    3.175866866886e-02
   251   -6.870445677611e-02
   252    2.232368755748e-02
   253   -6.871998232181e-01
   254    1.175838940104e-14
   255    2.383726896427e-14
   256    7.888987406531e-02
   257    8.132383655379e-15
   258    1.362397607924e-14
   259    6.781708291946e-02
   260    4.462662878124e-14
   261    1.088521633941e-13
   262    1.818086272444e-01
   263   -2.152286814390e-04
   264    4.816026050181e-16
   265    4.560154337474e-16
   266   -1.264577068009e-03
   267    1.930807588476e-03
   268   -1.549744075254e-03
   269    1.610690747444e-15
   270    3.151125194112e-15
   271   -1.672206141140e-03
   272    7.904872398905e-03
   273    1.610310568150e-04
   274    3.597518333578e-17
   275    1.321676329578e-16
   276   -1.547194549244e-04
   277    5.944862437409e-04
   278    1.376936759057e-16
   279   -5.131664407645e-17
   280    2.462188038750e-02
   281    8.648477019239e-02
   282    3.246332522846e-01
   283    5.972732099293e-03
   284    8.353031196816e-03
   285   -8.464667609834e-03
   286    2.462188038751e-02
   287    8.648477019243e-02
   288    3.246332522850e-01
   289   -5.972732099296e-03
   290   -8.353031196824e-03
   291   -8.464667609838e-03
Sym=X
Ene= -0.233255
Spin=Alpha
Occup=0
     1    1.370499308657e-17
     2    1.009717483236e-15
     3    1.328472921946e-15
     4   -7.217533862236e-15
     5   -4.017966515057e-14
     6    1.116511397226e-13
     7    9.236411014765e-03
     8   -5.389723795292e-03
     9    4.201012367838e-16
    10   -2.836536778691e-02
    11    1.778685144405e-02
    12   -1.925976739203e-15
    13   -1.296730706301e-02
    14   -9.844131254343e-03
    15    8.692699338120e-15
    16    1.714977120910e-01
    17    5.104962342614e-02
    18   -9.076073226311e-14
    19   -7.229460086133e-16
    20    1.482179390919e-02
    21   -2.031214567605e-02
    22    9.732882902402e-16
    23   -2.117189344848e-15
    24   -7.437626903251e-17
    25    7.966134038013e-03
    26   -1.331879636188e-02
    27    4.297777411733e-16
    28    3.003240017785e-17
    29   -2.372234353398e-14
    30    3.932829213245e-03
    31   -6.431782072019e-03
    32    4.912736883966e-15
    33   -1.003971211722e-14
    34   -8.119373229309e-15
    35   -6.193854735128e-01
    36   -5.737483150593e-01
    37   -8.611167334749e-15
    38   -4.479749904363e-14
    39    6.846736719246e-16
    40   -3.981522121222e-04
    41   -1.680425030908e-03
    42   -6.136584296268e-17
    43    2.894819800536e-17
    44   -2.938845584452e-03
    45    2.201946390511e-03
    46    5.318247885296e-03
    47    1.362121248628e-02
    48   -2.654686808250e-02
    49   -9.372777299833e-03
    50   -2.311716583802e-01
    51   -7.246826460259e-03
    52    1.795472825052e-02
    53    1.181089156510e-02
    54   -3.827664066263e-03
    55    2.170479580702e-02
    56    5.847277772933e-03
    57   -1.709150414406e-02
    58   -2.152705289410e-03
    59    5.818070150064e-02
    60    3.392210592705e-04
    61    1.745643482421e-04
    62   -1.553036517687e-03
    63   -9.065365150916e-05
    64   -1.069814634110e-03
    65    1.497177691312e-03
    66   -6.213838611060e-04
    67   -6.042020854786e-03
    68    2.621191509820e-03
    69   -9.007937725313e-04
    70    2.574418729788e-04
    71   -1.998634109960e-04
    72    1.165487119509e-04
    73    7.643415915796e-06
    74   -2.848967934629e-04
    75   -5.803273860516e-05
    76   -1.158945752607e-04
    77    1.469047587820e-03
    78    4.338857279495e-03
    79   -1.797644086924e-02
    80    4.350190244856e-02
    81   -1.713520518598e-01
    82    6.130216501985e-02
    83   -3.866223707601e-02
    84    4.598737689374e-02
    85    4.120042011672e-02
    86   -3.135180724465e-02
    87    4.437847616190e-02
    88    2.410538996396e-01
    89   -1.789330700575e-02
    90    1.383355537679e-01
    91    4.453170641802e-04
    92   -6.321457120039e-04
    93    9.327402755685e-04
    94   -1.653513611752e-03
    95   -8.946366951007e-04
    96    2.100644716275e-03
    97   -5.932571492927e-03
    98    1.614170077092e-03
    99   -1.064297388518e-02
   100   -1.011707552577e-02
   101   -9.844985547517e-04
   102   -2.410531982565e-04
   103    6.100301983342e-04
   104   -6.837276432852e-04
   105   -2.431018259366e-04
   106    1.552885805900e-04
   107   -3.331232565847e-04
   108   -1.469047587819e-03
   109   -4.338857279492e-03
   110    1.797644086923e-02
   111   -4.350190244855e-02
   112    1.713520518598e-01
   113    6.130216501986e-02
   114   -3.866223707600e-02
   115   -4.598737689374e-02
   116    4.120042011672e-02
   117   -3.135180724464e-02
   118   -4.437847616191e-02
   119    2.410538996396e-01
   120   -1.789330700574e-02
   121   -1.383355537679e-01
   122   -4.453170641806e-04
   123   -6.321457120037e-04
   124    9.327402755678e-04
   125    1.653513611752e-03
   126    8.946366951003e-04
   127   -2.100644716274e-03
   128   -5.932571492930e-03
   129    1.614170077095e-03
   130    1.064297388519e-02
   131    1.011707552577e-02
   132    9.844985547517e-04
   133   -2.410531982562e-04
   134    6.100301983340e-04
   135    6.837276432857e-04
   136    2.431018259372e-04
   137    1.552885805899e-04
   138   -3.331232565846e-04
   139   -5.318247885297e-03
   140   -1.362121248628e-02
   141    2.654686808251e-02
   142    9.372777299845e-03
   143    2.311716583801e-01
   144   -7.246826460263e-03
   145    1.795472825052e-02
   146   -1.181089156511e-02
   147   -3.827664066263e-03
   148    2.170479580701e-02
   149   -5.847277772936e-03
   150   -1.709150414410e-02
   151   -2.152705289401e-03
   152   -5.818070150062e-02
   153   -3.392210592704e-04
   154    1.745643482419e-04
   155   -1.553036517687e-03
   156    9.065365150950e-05
   157    1.069814634110e-03
   158   -1.497177691316e-03
   159   -6.213838611072e-04
   160   -6.042020854783e-03
   161   -2.621191509820e-03
   162    9.007937725344e-04
   163   -2.574418729784e-04
   164   -1.998634109955e-04
   165    1.165487119500e-04
   166   -7.643415915969e-06
   167    2.848967934631e-04
   168   -5.803273860525e-05
   169   -1.158945752605e-04
   170    1.288845332542e-17
   171   -3.311153434771e-16
   172    1.842059491053e-16
   173    9.367506770275e-17
   174    5.658667978636e-14
   175    2.866409057927e-02
   176    4.152543483246e-02
   177   -1.251196412103e-15
   178    3.355908836893e-03
   179    1.403547544184e-02
   180   -3.640750895206e-15
   181    1.516892140679e-01
   182    1.743048393789e-01
   183   -2.271750496052e-14
   184    2.623769257415e-16
   185   -4.411799300060e-04
   186    1.946560020176e-04
   187    3.095397202446e-17
   188   -1.617629641348e-16
   189    1.739060284667e-16
   190   -5.470450906790e-03
   191   -2.944971037479e-03
   192   -1.203464411459e-17
   193    4.054916125096e-16
   194    2.888043536958e-16
   195    6.528101831020e-04
   196    3.914282299900e-04
   197    7.352245982167e-18
   198   -1.057097118173e-18
   199   -1.494335681937e-05
   200   -1.359520067776e-04
   201    2.012701555392e-02
   202    7.416469293447e-02
   203    5.837093368738e-01
   204   -9.167144983117e-03
   205   -5.018512665312e-03
   206    9.156162342856e-03
   207   -2.389331867175e-02
   208   -6.383201365404e-03
   209   -5.487979432927e-01
   210   -8.125558092233e-03
   211    1.178457427794e-02
   212   -4.477527128713e-03
   213    1.708866620366e-02
   214    3.780197553886e-02
   215    1.498883435174e-01
   216    1.422592941555e-03
   217   -3.058552159542e-03
   218    2.423731015038e-03
   219    2.468864846180e-03
   220    1.137650804273e-02
   221    1.464517341820e-01
   222    3.571335029575e-03
   223    3.886729333960e-03
   224   -5.467880503040e-03
   225   -2.012701555392e-02
   226   -7.416469293450e-02
   227   -5.837093368737e-01
   228   -9.167144983110e-03
   229   -5.018512665312e-03
   230   -9.156162342854e-03
   231    2.389331867175e-02
   232    6.383201365446e-03
   233    5.487979432926e-01
   234   -8.125558092232e-03
   235    1.178457427794e-02
   236    4.477527128712e-03
   237   -1.708866620366e-02
   238   -3.780197553884e-02
   239   -1.498883435174e-01
   240    1.422592941556e-03
   241   -3.058552159543e-03
   242   -2.423731015042e-03
   243   -2.468864846185e-03
   244   -1.137650804269e-02
   245   -1.464517341821e-01
   246    3.571335029578e-03
   247    3.886729333956e-03
   248    5.467880503048e-03
   249   -1.168891914684e-15
   250   -1.859731986464e-15
   251    4.885414989220e-15
   252    2.464608378494e-15
   253    3.537101167517e-15
   254   -9.351957319510e-02
   255   -1.152063212189e-01
   256   -8.386303804175e-15
   257   -6.126822525360e-02
   258   -5.928444466157e-02
   259   -1.187721795914e-14
   260   -3.615309083866e-01
   261   -5.494411149582e-01
   262   -2.764281858969e-15
   263    3.563772540960e-16
   264    1.980127669733e-04
   265   -1.770232573884e-03
   266   -1.599198204416e-16
   267    1.890306487728e-16
   268   -8.348356728138e-16
   269   -4.109299599428e-03
   270   -9.897387678452e-03
   271    1.178310921057e-15
   272   -9.212465859609e-16
   273   -1.701113208630e-16
   274   -9.547819939023e-05
   275    5.550139340422e-04
   276    1.138412281110e-17
   277    3.747544809196e-16
   278    1.705119529448e-03
   279   -1.071349624762e-04
   280    1.936159823784e-02
   281    8.510436757633e-02
   282    9.481924188131e-01
   283    8.099725172562e-03
   284    1.521389320393e-02
   285   -1.136907239473e-02
   286   -1.936159823784e-02
   287   -8.510436757634e-02
   288   -9.481924188131e-01
   289    8.099725172563e-03
   290    1.521389320393e-02
   291    1.136907239473e-02
Sym=X
Ene= -0.231994
Spin=Alpha
Occup=0
     1    1.161587102547e-16
     2    2.415060339211e-16
     3    4.974319567363e-16
     4   -4.852888924045e-15
     5   -4.637262795981e-14
     6    3.919572999500e-13
     7   -1.225222595237e-02
     8    1.953356285628e-03
     9    2.339681183169e-15
    10    3.865896342007e-02
    11   -5.665166431172e-03
    12   -7.390138848096e-15
    13    1.886550368434e-03
    14   -6.939231204210e-03
    15   -7.112366251505e-16
    16   -7.177863708337e-02
    17    6.221138721089e-02
    18    1.056654763687e-13
    19   -7.433398514778e-15
    20   -5.003651996251e-02
    21   -3.553557208339e-03
    22   -1.969886927189e-15
    23   -3.730414414871e-15
    24   -8.521395394867e-15
    25   -3.223057499943e-02
    26   -2.341075053440e-03
    27   -1.091574747258e-15
    28   -5.342948306009e-16
    29    3.529728592744e-14
    30   -1.206265366689e-02
    31   -2.008360627526e-03
    32   -1.824929096728e-15
    33   -3.979455653891e-15
    34    9.333245981624e-14
    35   -3.780941017365e-01
    36   -1.138477748905e-01
    37    3.940370165573e-14
    38    7.512046540370e-14
    39   -5.847644417301e-16
    40   -7.291979492063e-04
    41   -1.783960482689e-03
    42   -9.310586156219e-16
    43    4.101536818513e-16
    44   -6.679277587430e-04
    45   -6.089604913472e-03
    46   -5.924025911797e-03
    47   -1.470102606976e-02
    48    2.121736911018e-02
    49    4.634344174043e-02
    50    1.749189693406e-01
    51    1.263742682120e-02
    52   -2.915688099358e-02
    53    6.393531169899e-02
    54    4.574030894134e-03
    55   -2.715749929401e-02
    56    4.114445141367e-02
    57    8.818908330276e-02
    58   -1.221097911189e-01
    59    2.769699553220e-01
    60   -8.218955759431e-04
    61   -9.379617889158e-04
    62    9.681800638078e-04
    63   -4.062723057193e-04
    64    9.776438796284e-04
    65   -5.543712866825e-04
    66   -5.350761090984e-03
    67    9.780104297939e-04
    68   -1.497331142678e-03
    69    4.275128890423e-03
    70    4.099695746008e-04
    71    4.822301811901e-04
    72   -4.737671618812e-04
    73    3.526132620415e-04
    74   -4.673261889643e-04
    75   -4.283263515686e-04
    76    4.769111625019e-05
    77   -3.011095987869e-04
    78   -4.905086396236e-04
    79   -3.669545404850e-03
    80    2.254570147241e-02
    81   -3.884332262014e-02
    82   -9.519864089148e-02
    83    4.787655927366e-02
    84    3.105431468595e-02
    85   -6.304172497692e-02
    86    2.930913210264e-02
    87    2.714074796742e-02
    88   -3.255521938880e-01
    89    2.232990803354e-01
    90    1.007897469400e-01
    91    1.904649788829e-04
    92    4.832790137883e-04
    93   -3.904082822776e-04
    94    1.809849350012e-03
    95    1.160797869295e-03
    96    2.515559907729e-04
    97    6.741482669800e-04
    98   -4.115294826947e-03
    99    1.720262773262e-02
   100    9.940436036962e-03
   101   -6.447635720404e-04
   102    5.950309196596e-04
   103   -2.981408443291e-04
   104    8.317168888010e-04
   105    3.699409372611e-04
   106    3.279208075194e-04
   107    4.160574104805e-04
   108    3.011095987822e-04
   109    4.905086396118e-04
   110    3.669545404868e-03
   111   -2.254570147239e-02
   112    3.884332262041e-02
   113   -9.519864089150e-02
   114    4.787655927363e-02
   115   -3.105431468594e-02
   116   -6.304172497693e-02
   117    2.930913210261e-02
   118   -2.714074796742e-02
   119   -3.255521938880e-01
   120    2.232990803353e-01
   121   -1.007897469399e-01
   122   -1.904649788814e-04
   123    4.832790137879e-04
   124   -3.904082822768e-04
   125   -1.809849350012e-03
   126   -1.160797869294e-03
   127   -2.515559907715e-04
   128    6.741482669850e-04
   129   -4.115294826951e-03
   130   -1.720262773262e-02
   131   -9.940436036966e-03
   132    6.447635720396e-04
   133    5.950309196596e-04
   134   -2.981408443286e-04
   135   -8.317168888017e-04
   136   -3.699409372618e-04
   137    3.279208075183e-04
   138    4.160574104803e-04
   139    5.924025911794e-03
   140    1.470102606976e-02
   141   -2.121736911016e-02
   142   -4.634344174044e-02
   143   -1.749189693405e-01
   144    1.263742682120e-02
   145   -2.915688099357e-02
   146   -6.393531169905e-02
   147    4.574030894135e-03
   148   -2.715749929401e-02
   149   -4.114445141369e-02
   150    8.818908330279e-02
   151   -1.221097911189e-01
   152   -2.769699553221e-01
   153    8.218955759445e-04
   154   -9.379617889160e-04
   155    9.681800638073e-04
   156    4.062723057190e-04
   157   -9.776438796291e-04
   158    5.543712866747e-04
   159   -5.350761090988e-03
   160    9.780104298052e-04
   161    1.497331142682e-03
   162   -4.275128890423e-03
   163   -4.099695746006e-04
   164    4.822301811909e-04
   165   -4.737671618825e-04
   166   -3.526132620421e-04
   167    4.673261889640e-04
   168   -4.283263515685e-04
   169    4.769111625007e-05
   170    3.190725678462e-15
   171    7.888766815354e-15
   172   -1.689891716145e-14
   173   -1.919471526168e-15
   174   -1.920720527071e-13
   175    4.605838797535e-02
   176    1.785566062166e-03
   177   -8.774275387204e-15
   178    2.933814968265e-02
   179   -6.542167875849e-03
   180    1.234689434026e-15
   181    1.475833950956e-01
   182    2.768004579623e-02
   183    5.456572693685e-15
   184   -1.214306433184e-16
   185    5.439857912271e-04
   186   -2.258558944008e-05
   187    1.526556658860e-16
   188   -1.275834906472e-16
   189   -3.217261526633e-15
   190   -2.377990883659e-03
   191    2.849080507933e-04
   192   -8.771195575408e-16
   193   -9.931291899967e-17
   194    1.472888651322e-16
   195    9.841957514934e-05
   196    3.419466016282e-05
   197    1.172564649543e-16
   198    3.575156663771e-17
   199    6.147364977102e-05
   200    4.437827929741e-05
   201   -2.692442936556e-02
   202   -3.968533599750e-02
   203   -8.496150183593e-01
   204    1.922578557469e-02
   205    1.644552651894e-03
   206   -2.581096371595e-03
   207    2.742961425680e-02
   208    8.269797760379e-02
   209    8.916117476959e-01
   210    4.772037601362e-03
   211   -1.612482259760e-02
   212    6.970971992334e-03
   213   -2.417790840262e-02
   214   -1.209741749891e-01
   215   -6.209292576219e-01
   216   -6.880436169765e-03
   217    3.969050801887e-03
   218   -7.911208825641e-03
   219    4.709988230479e-04
   220   -8.148121561322e-03
   221    2.555124904726e-01
   222    1.515712616846e-03
   223   -2.596385954707e-03
   224   -5.609432139126e-03
   225    2.692442936554e-02
   226    3.968533599746e-02
   227    8.496150183590e-01
   228    1.922578557468e-02
   229    1.644552651893e-03
   230    2.581096371595e-03
   231   -2.742961425681e-02
   232   -8.269797760391e-02
   233   -8.916117476960e-01
   234    4.772037601361e-03
   235   -1.612482259759e-02
   236   -6.970971992330e-03
   237    2.417790840263e-02
   238    1.209741749891e-01
   239    6.209292576221e-01
   240   -6.880436169767e-03
   241    3.969050801887e-03
   242    7.911208825645e-03
   243   -4.709988230592e-04
   244    8.148121561406e-03
   245   -2.555124904732e-01
   246    1.515712616850e-03
   247   -2.596385954721e-03
   248    5.609432139146e-03
   249    1.507298517771e-15
   250    4.966621731939e-15
   251   -1.281266759356e-14
   252    2.184190328602e-14
   253   -1.780992887890e-13
   254   -4.434055532988e-02
   255   -6.746938068775e-02
   256    2.098261885422e-14
   257   -2.339792447072e-02
   258   -3.670686770840e-02
   259    1.699774218947e-14
   260   -2.192992855329e-01
   261   -2.791599901919e-01
   262    5.244752115247e-14
   263    1.426132432633e-16
   264   -3.746585467518e-04
   265   -1.252588420135e-03
   266   -1.978668964786e-16
   267    8.958762551248e-16
   268   -2.368927536772e-15
   269   -1.003613021065e-02
   270   -6.916207532528e-03
   271   -4.770489558936e-16
   272    2.567390744446e-16
   273   -2.042230317148e-16
   274   -3.760644377087e-05
   275    5.153217234431e-04
   276   -2.278992966565e-16
   277    4.702726923156e-16
   278    6.795233754951e-04
   279   -2.693682719424e-04
   280    1.504819345487e-02
   281    4.462718913922e-02
   282    5.882199923307e-01
   283    7.742516365510e-03
   284    8.006709315460e-03
   285   -8.169837481577e-03
   286   -1.504819345486e-02
   287   -4.462718913918e-02
   288   -5.882199923305e-01
   289    7.742516365507e-03
   290    8.006709315459e-03
   291    8.169837481574e-03
[5D7F]

======= END OF MOLDEN-FORMATTED INPUT FILE =======


        *************************************************************
        *                                                           *
        *  Thank you very much for using Q-Chem.  Have a nice day.  *
        *                                                           *
        *************************************************************


