                  Welcome to Q-Chem
     A Quantum Leap Into The Future Of Chemistry


 Q-Chem 6.0 (devel), Q-Chem, Inc., Pleasanton, CA (2022)

 E. Epifanovsky,  A. T. B. Gilbert,  Xintian Feng,  Joonho Lee,  Yuezhi Mao,  
 N. Mardirossian,  P. Pokhilko,  A. White,  M. Wormit,  M. P. Coons,  
 A. L. Dempwolff,  Zhengting Gan,  D. Hait,  P. R. Horn,  L. D. Jacobson,  
 I. Kaliman,  J. Kussmann,  A. W. Lange,  Ka Un Lao,  D. S. Levine,  Jie Liu,  
 S. C. McKenzie,  A. F. Morrison,  K. Nanda,  F. Plasser,  D. R. Rehn,  
 M. L. Vidal,  Zhi-Qiang You,  Ying Zhu,  B. Alam,  B. Albrecht,  
 A. Aldossary,  E. Alguire,  J. H. Andersen,  V. Athavale,  D. Barton,  
 K. Begam,  A. Behn,  N. Bellonzi,  Y. A. Bernard,  E. J. Berquist,  
 H. Burton,  A. Carreras,  K. Carter-Fenk,  Romit Chakraborty,  
 Chandrima Chakravarty,  Junhan Chen,  A. D. Chien,  K. D. Closser,  
 V. Cofer-Shabica,  L. Cunha,  S. Dasgupta,  Jia Deng,  M. de Wergifosse,  
 M. Diedenhofen,  Hainam Do,  S. Ehlert,  Po-Tung Fang,  S. Fatehi,  
 Qingguo Feng,  T. Friedhoff,  B. Ganoe,  J. Gayvert,  Qinghui Ge,  
 G. Gidofalvi,  M. Goldey,  J. Gomes,  C. Gonzalez-Espinoza,  S. Gulania,  
 A. Gunina,  J. A. Gyamfi,  M. W. D. Hanson-Heine,  P. H. P. Harbach,  
 A. W. Hauser,  M. F. Herbst,  M. Hernandez Vera,  M. Hodecker,  
 Z. C. Holden,  S. Houck,  Xunkun Huang,  Kerwin Hui,  B. C. Huynh,  
 K. Ikeda,  M. Ivanov,  Hyunjun Ji,  Zuxin Jin,  Hanjie Jiang,  B. Kaduk,  
 S. Kaehler,  R. Kang,  K. Khistyaev,  Jaehoon Kim,  Yongbin Kim,  
 P. Klunzinger,  Z. Koczor-Benda,  Joong Hoon Koh,  D. Kosenkov,  
 Saikiran Kotaru,  L. Koulias,  T. Kowalczyk,  C. M. Krauter,  K. Kue,  
 A. Kunitsa,  T. Kus,  A. Landau,  K. V. Lawler,  D. Lefrancois,  S. Lehtola,  
 Rain Li,  Shaozhi Li,  Yi-Pei Li,  Jiashu Liang,  M. Liebenthal,  
 Hung-Hsuan Lin,  You-Sheng Lin,  Fenglai Liu,  Kuan-Yu Liu,  
 M. Loipersberger,  A. Luenser,  C. Malbon,  A. Manjanath,  P. Manohar,  
 E. Mansoor,  S. F. Manzer,  Shan-Ping Mao,  A. V. Marenich,  T. Markovich,  
 S. Mason,  F. Matz,  S. A. Maurer,  P. F. McLaughlin,  M. F. S. J. Menger,  
 J.-M. Mewes,  S. A. Mewes,  P. Morgante,  Mohammad Mostafanejad,  
 J. W. Mullinax,  K. J. Oosterbaan,  G. Paran,  V. Parravicini,  
 Alexander C. Paul,  Suranjan K. Paul,  F. Pavosevic,  Zheng Pei,  S. Prager,  
 E. I. Proynov,  E. Ramos,  B. Rana,  A. E. Rask,  A. Rettig,  R. M. Richard,  
 F. Rob,  E. Rossomme,  T. Scheele,  M. Scheurer,  M. Schneider,  
 P. E. Schneider,  N. Sergueev,  S. M. Sharada,  Hengyuan Shen,  
 W. Skomorowski,  D. W. Small,  C. J. Stein,  Yingli Su,  Yu-Chuan Su,  
 E. J. Sundstrom,  Zhen Tao,  J. Thirman,  Hung-Yi Tsai,  T. Tsuchimochi,  
 N. M. Tubman,  C. Utku,  S. P. Veccham,  O. Vydrov,  J. Wenzel,  
 Jonathan Wong,  J. Witte,  A. Yamada,  Chou-Hsun Yang,  Kun Yao,  
 S. Yeganeh,  S. R. Yost,  A. Zech,  F. Zeller,  Igor Ying Zhang,  
 Xing Zhang,  Yu Zhang,  D. Zuev,  A. Aspuru-Guzik,  A. T. Bell,  
 N. A. Besley,  K. B. Bravaya,  B. R. Brooks,  D. Casanova,  Jeng-Da Chai,  
 Hsing-Ta Chen,  S. Coriani,  C. J. Cramer,  A. E. DePrince, III,  
 R. A. DiStasio Jr.,  A. Dreuw,  B. D. Dunietz,  T. R. Furlani,  
 W. A. Goddard III,  S. Grimme,  S. Hammes-Schiffer,  T. Head-Gordon,  
 W. J. Hehre,  Chao-Ping Hsu,  T.-C. Jagau,  Yousung Jung,  A. Klamt,  
 Jing Kong,  D. S. Lambrecht,  Xiangyuan Li,  WanZhen Liang,  N. J. Mayhall,  
 C. W. McCurdy,  J. B. Neaton,  T. Neudecker,  C. Ochsenfeld,  
 J. A. Parkhill,  R. Peverati,  V. A. Rassolov,  Haisheng Ren,  Yihan Shao,  
 L. V. Slipchenko,  R. P. Steele,  J. E. Subotnik,  A. J. W. Thom,  
 A. Tkatchenko,  D. G. Truhlar,  T. Van Voorhis,  Fan Wang,  
 T. A. Wesolowski,  K. B. Whaley,  H. L. Woodcock III,  P. M. Zimmerman,  
 S. Faraji,  P. M. W. Gill,  M. Head-Gordon,  J. M. Herbert,  A. I. Krylov

 Contributors to earlier versions of Q-Chem not listed above: 
 R. D. Adamson,  B. Austin,  R. Baer,  J. Baker,  G. J. O. Beran,  
 K. Brandhorst,  S. T. Brown,  E. F. C. Byrd,  Arup K. Chakraborty,  
 G. K. L. Chan,  Chun-Min Chang,  Yunqing Chen,  C.-L. Cheng,  
 Siu Hung Chien,  D. M. Chipman,  D. L. Crittenden,  H. Dachsel,  
 R. J. Doerksen,  A. D. Dutoi,  R. G. Edgar,  J. Fosso-Tande,  
 L. Fusti-Molnar,  D. Ghosh,  A. Ghysels,  A. Golubeva-Zadorozhnaya,  
 J. Gonthier,  M. S. Gordon,  S. R. Gwaltney,  G. Hawkins,  J. E. Herr,  
 A. Heyden,  S. Hirata,  E. G. Hohenstein,  G. Kedziora,  F. J. Keil,  
 C. Kelley,  Jihan Kim,  R. A. King,  R. Z. Khaliullin,  P. P. Korambath,  
 W. Kurlancheek,  A. Laurent,  A. M. Lee,  M. S. Lee,  S. V. Levchenko,  
 Ching Yeh Lin,  D. Liotard,  E. Livshits,  R. C. Lochan,  I. Lotan,  
 L. A. Martinez-Martinez,  P. E. Maslen,  N. Nair,  D. P. O'Neill,  
 D. Neuhauser,  E. Neuscamman,  C. M. Oana,  R. Olivares-Amaya,  R. Olson,  
 T. M. Perrine,  B. Peters,  P. A. Pieniazek,  A. Prociuk,  Y. M. Rhee,  
 J. Ritchie,  M. A. Rohrdanz,  E. Rosta,  N. J. Russ,  H. F. Schaefer III,  
 M. W. Schmidt,  N. E. Schultz,  S. Sharma,  N. Shenvi,  C. D. Sherrill,  
 A. C. Simmonett,  A. Sodt,  T. Stein,  D. Stuck,  K. S. Thanthiriwatte,  
 V. Vanovschi,  L. Vogt,  Tao Wang,  A. Warshel,  M. A. Watson,  
 C. F. Williams,  Q. Wu,  X. Xu,  Jun Yang,  W. Zhang,  Yan Zhao

   Please cite Q-Chem as follows:
  "Software for the frontiers of quantum chemistry:
   An overview of developments in the Q-Chem 5 package"
   J. Chem. Phys. 155, 084801 (2021)
   https://doi.org/10.1063/5.0055522 (open access)

 Q-Chem 6.0.1 for Intel X86 EM64T Linux

 Parts of Q-Chem use Armadillo 9.900.5 (Nocturnal Misbehaviour).
 http://arma.sourceforge.net/

 Q-Chem begins on Fri Jul  7 04:12:36 2023  

 Host: atlas-126
0

     Scratch files written to ./qchem70065//
 Processing $rem in /scratch/abel/SOFTWARE/qchem/config/preferences:
 Processing $rem in /dipc/acebg/.qchemrc:

 Checking the input file for inconsistencies... 	...done.

--------------------------------------------------------------
User input:
--------------------------------------------------------------
$comment
 RAS-SF CALCULATION
$end

$molecule
 READ C22H12B2.xyz
$end

$rem
!**CALCULATION TYPE***     
JOBTYPE            sp    
EXCHANGE           HF
CORRELATION        RASCI    !RASCI=Casanova; RASCI2=Zimmerman
BASIS              6-31G* 

!***SCF REFERENCE***
!SKIP_SCFMAN        FALSE
UNRESTRICTED       FALSE
!SCF_GUESS          core
!SCF_GUESS_MIX      FALSE
!SCF_GUESS_ALWAYS   FALSE
MAX_SCF_CYCLES     500
!SCF_CONVERGENCE    8
!SCF_ALGORITHM      DIIS !DIIS,DM,DIIS_DM,GDM,DIIS_GDM,GD

!SYMMETRY           TRUE !use of symmetry for calculating integrals
!SYM_IGNORE         FALSE !turn off using symmetry
!SYM_TOL            5 !tolerance for determining point group

!THRESH             14
SCF_FINAL_PRINT     1 !0,1,2,3

!****RAS-SF****
RAS_ROOTS          20       !number of RAS-CI roots to be computed
SET_ITER           150     !number of iterations in RASCI
RAS_ELEC           4       !number of electrons in RAS2
RAS_ELEC_ALPHA     3       !spin-α electrons in RAS2 
RAS_ELEC_BETA      1      !spin-β electrons in RAS2

RAS_ACT            4       !number of orbitals in RAS2 
RAS_ACT_ORB   [76,77,78,79]  !user-selected RAS2 orbitals
RAS_OCC            75       !number of orbitals in RAS1
N_FROZEN_CORE      0     !Number of frozen core orbitals
N_FROZEN_VIRTUAL   0      !Number of frozen virtual orbitals

RAS_DO_HOLE        TRUE   !presence of hole excitations in RAS-CI wave function
RAS_DO_PART        TRUE   !presence of particle excitations
!RAS_AMPL_PRINT     10     !threshold (×10 2 ) for the CI amplitudes

!RAS_GUESS_CS       0      !number of closed shell guess conﬁgurations
!RAS_SPIN_MULT      0      !spin multiplicity: 0=any, 2n+1=defined 
!RAS_SRDFT          FALSE  !short-range density functional RAS-CI
!RAS_NFRAG          0     !fragments of excitation analysis in RASCI

RAS_PRINT          2      !level of information
RAS_NATORB         TRUE   !computation of the natural orbital occupancies
!RAS_NATORB_STATE  0      !Saves NO of i RAS computed state in .fchk ﬁle
!RAS_FOD            TRUE

!****RAS-SOC****
CALC_SOC           TRUE   !calculate SOC for EOM-CC, RAS-CI, ADC, TDDFT/TDA and TDDFT
!RAS_SOC_2E        TRUE   !two-electron mean-ﬁeld contribution, default=true
RAS_SOC_SYM_DENS   TRUE   !averaging of α and β densities

!****MEMORY****
MEM_TOTAL          60000 !Default 2000 MB
MEM_STATIC         16000  !Default 64 MB

!**Molecular Properties and Analysis **                                                                                          
!GUI                2
STATE_ANALYSIS     TRUE
MOLDEN_FORMAT      TRUE
PRINT_ORBITALS     20
$end                                           

--------------------------------------------------------------
 ----------------------------------------------------------------
             Standard Nuclear Orientation (Angstroms)
    I     Atom           X                Y                Z
 ----------------------------------------------------------------
    1      H       3.3993910425    -3.4408085936    -0.0000000000
    2      H      -3.3996169539    -3.4405873117    -0.0000000000
    3      H       4.7056371079    -1.2265811058     0.0000000000
    4      H      -4.7057158872    -1.2262768020    -0.0000000000
    5      H       4.7057009401     1.2263058934     0.0000000000
    6      H      -4.7056210550     1.2266101962    -0.0000000000
    7      H       3.3996410044     3.4405434019     0.0000000000
    8      H      -3.3994159920     3.4407636854     0.0000000000
    9      B      -0.0000470524    -1.4465079538    -0.0000000000
   10      B       0.0000471047     1.4465190447     0.0000000000
   11      H       1.3487020262    -4.7010228522    -0.0000000000
   12      H      -1.3490069724    -4.7009370520    -0.0000000000
   13      C       1.2758214273    -3.6133034796    -0.0000000000
   14      C      -1.2760595713    -3.6132214256    -0.0000000000
   15      C       2.4619640507    -2.8874830837    -0.0000000000
   16      C      -0.0000969039    -2.9782249530    -0.0000000000
   17      C      -2.4621519468    -2.8873248224    -0.0000000000
   18      C       2.5429473550    -1.4340327186    -0.0000000000
   19      C      -2.5430406423    -1.4338671890    -0.0000000000
   20      C       3.7537572505    -0.6998501255     0.0000000000
   21      C       1.3344412139    -0.7009363859    -0.0000000000
   22      C      -1.3344857847    -0.7008495225    -0.0000000000
   23      C      -3.7538027456    -0.6996067829    -0.0000000000
   24      C       3.7537937981     0.6996238741     0.0000000000
   25      C       1.3344818358     0.7008236135     0.0000000000
   26      C      -1.3344361628     0.7009104767     0.0000000000
   27      C      -3.7537481980     0.6998672161    -0.0000000000
   28      C       2.5430166939     1.4338572807     0.0000000000
   29      C      -2.5429233034     1.4340218087     0.0000000000
   30      C       2.4621439992     2.8873399135     0.0000000000
   31      C       0.0000969558     2.9782210439     0.0000000000
   32      C      -2.4619559982     2.8874991743     0.0000000000
   33      C       1.2760706234     3.6132235161     0.0000000000
   34      C      -1.2758343753     3.6133055709     0.0000000000
   35      H      -1.3486389740     4.7010319410     0.0000000000
   36      H       1.3489460246     4.7009451449     0.0000000000
 ----------------------------------------------------------------
 Molecular Point Group                 Cs    NOp =  2
 Largest Abelian Subgroup              Cs    NOp =  2
 Nuclear Repulsion Energy =        1741.82836588 hartrees
 There are       78 alpha and       76 beta electrons
 Requested basis set is 6-31G(d)
 There are 120 shells and 384 basis functions

 Q-Chem warning in module libmdc/get_mega.C, line 167:

 Allowed MEM_STATIC has been capped at MEM_STATIC=8191.
 Reduce the value of MEM_STATIC to silence this warning.


 Total QAlloc Memory Limit  60000 MB
 Mega-Array Size      8007 MB
 MEM_STATIC part      8191 MB

 A cutoff of  1.0D-09 yielded   4110 shell pairs
 There are     47834 function pairs
 Smallest overlap matrix eigenvalue = 3.31E-04

 Scale SEOQF with 1.000000e-01/1.000000e-01/1.000000e+00

 Standard Electronic Orientation quadrupole field applied
 Nucleus-field energy     =     0.0000000919 hartrees
 Guess from superposition of atomic densities
 Warning:  Energy on first SCF cycle will be non-variational
 SAD guess density has 154.000000 electrons

 -----------------------------------------------------------------------
  General SCF calculation program by
  Eric Jon Sundstrom, Paul Horn, Yuezhi Mao, Dmitri Zuev, Alec White,
  David Stuck, Shaama M.S., Shane Yost, Joonho Lee, David Small,
  Daniel Levine, Susi Lehtola, Hugh Burton, Evgeny Epifanovsky,
  Bang C. Huynh
 -----------------------------------------------------------------------
 Hartree-Fock
 Orthonormalizing orbitals
 A restricted open-shell SCF calculation will be
 performed using GDM
 SCF converges when RMS gradient is below 1.0e-05
 ---------------------------------------
  Cycle       Energy        RMS Gradient
 ---------------------------------------
    1    -883.8878773712      8.41e-01   Descent step
    2    -884.7683854814      7.46e-01   Descent step
    3    -885.5318563731      6.52e-01   Descent step
    4    -886.1862699727      5.56e-01   Descent step
    5    -886.7458978102      4.72e-01   Descent step
    6    -887.2439747240      6.15e-01   Descent step
    7    -887.7022588142      4.08e-01   Descent step
    8    -888.0723031982      6.12e-01   Descent step
    9    -888.3904582560      1.88e-01   Descent step
   10    -888.5744324823      2.01e-01   Descent step
   11    -888.6955655958      1.61e-01   Dog-leg BFGS step
   12    -888.7520909707      8.66e-02   Normal BFGS step
   13    -888.7672284535      5.92e-02   Normal BFGS step
   14    -888.7776316717      3.83e-02   Normal BFGS step
   15    -888.7790313609      9.11e-02   Normal BFGS step
   16    -888.7868992316      4.07e-02   Normal BFGS step
   17    -888.7815543059      7.45e-02  Line search: overstep
   18    -888.7891096430      1.42e-02   Normal BFGS step
   19    -888.7902326933      6.66e-03   Normal BFGS step
   20    -888.7905411881      5.30e-03   Normal BFGS step
   21    -888.7906057226      1.78e-03   Normal BFGS step
   22    -888.7906192980      6.13e-04   Normal BFGS step
   23    -888.7906216943      4.21e-04   Normal BFGS step
   24    -888.7906230296      1.01e-03   Normal BFGS step
   25    -888.7906381147      4.03e-03  Line search: understep
   26    -888.7910463752      3.24e-02   Normal BFGS step
   27    -888.7917209193      3.71e-02  Line search: understep
   28    -888.7973439991      7.92e-02   Dog-leg BFGS step
   29    -888.8191098137      8.38e-02   Dog-leg BFGS step
   30    -888.8035192475      2.05e-01  Line search: overstep
   31    -888.8288062571      4.73e-02   Dog-leg BFGS step
   32    -888.7790759908      1.53e-01  Line search: overstep
   33    -888.8336770969      3.84e-02   Dog-leg BFGS step
   34    -888.7910246064      2.95e-01  Line search: overstep
   35    -888.8363691625      3.57e-02   Dog-leg BFGS step
   36    -888.8199928225      9.47e-02  Line search: overstep
   37    -888.8394057996      3.70e-02   Dog-leg BFGS step
   38    -888.8358827616      4.89e-02  Line search: overstep
   39    -888.8438463501      1.47e-02   Normal BFGS step
   40    -888.8477078091      4.65e-02   Normal BFGS step
   41    -888.8558519748      7.27e-02   Dog-leg BFGS step
   42    -888.8311673317      3.60e-01  Line search: overstep
   43    -888.8605818912      4.86e-02   Normal BFGS step
   44    -888.8665962408      5.11e-02   Normal BFGS step
   45    -888.8774112743      1.60e-02   Normal BFGS step
   46    -888.8801542386      2.08e-02   Normal BFGS step
   47    -888.8815006409      1.37e-02   Normal BFGS step
   48    -888.8820280287      9.24e-03   Normal BFGS step
   49    -888.8823848467      1.90e-02   Normal BFGS step
   50    -888.8827178342      7.40e-03   Normal BFGS step
   51    -888.8829507249      4.09e-03   Normal BFGS step
   52    -888.8830646400      3.08e-03   Normal BFGS step
   53    -888.8831541329      4.58e-03   Normal BFGS step
   54    -888.8833448940      1.19e-02   Dog-leg BFGS step
   55    -888.8802415072      6.99e-02  Line search: overstep
   56    -888.8836739105      2.36e-02  Line search: understep
   57    -888.8814007377      6.56e-02  Line search: overstep
   58    -888.8837928087      2.82e-02   Dog-leg BFGS step
   59    -888.8820856000      1.15e-01  Line search: overstep
   60    -888.8847960003      5.41e-02   Dog-leg BFGS step
   61    -888.8982001942      2.61e-01   Dog-leg BFGS step
Fro norm of D 1.170469251084e+00
transformation scaled by 2
   62    -889.0624995371      8.53e-01   Descent step
   63    -889.1338597381      4.66e-01   Descent step
   64    -889.1660707429      3.26e-01   Descent step
   65    -889.1584191831      4.05e-01  Line search: overstep
   66    -889.1935221734      2.39e-02   Dog-leg BFGS step
   67    -889.1177963603      3.00e-01  Line search: overstep
   68    -889.1935121526      3.26e-02  Line search: overstep
   69    -889.1937368416      2.33e-02   Dog-leg BFGS step
   70    -889.1827899600      9.33e-02  Line search: overstep
   71    -889.1976895179      3.33e-02   Normal BFGS step
   72    -889.1954103782      4.95e-02  Line search: overstep
   73    -889.1985509074      1.99e-02   Dog-leg BFGS step
   74    -889.1756542003      7.89e-02  Line search: overstep
   75    -889.1999681029      2.37e-02   Normal BFGS step
   76    -889.1984291382      4.91e-02  Line search: overstep
   77    -889.2007063969      1.38e-02   Normal BFGS step
   78    -889.2008763948      2.95e-02   Normal BFGS step
   79    -889.2014060388      2.44e-02   Normal BFGS step
   80    -889.2019647704      1.27e-02   Normal BFGS step
   81    -889.2021906733      4.22e-03   Normal BFGS step
   82    -889.2022664067      3.89e-03   Normal BFGS step
   83    -889.2023211388      1.47e-03   Normal BFGS step
   84    -889.2023371657      1.97e-03   Normal BFGS step
   85    -889.2023437415      1.69e-03   Normal BFGS step
   86    -889.2023467003      5.88e-04   Normal BFGS step
   87    -889.2023477211      4.31e-04   Normal BFGS step
   88    -889.2023478064      4.70e-04   Normal BFGS step
   89    -889.2023479872      1.21e-04   Normal BFGS step
   90    -889.2023479888      1.41e-04   Normal BFGS step
   91    -889.2023480108      1.42e-05   Normal BFGS step
   92    -889.2023481514      1.47e-05   Normal BFGS step
   93    -889.2023492857      9.05e-06  Convergence criterion met
The disked orbital energies are calculated using alpha and beta Focks
 ---------------------------------------
 Alpha HF Exchange    Energy = -63.63096220378641
 Beta HF Exchange     Energy = -62.50663468126826
 Nuclear Attraction   Energy =   0.00000000000000
 One-Electron (alpha) Energy = -2361.05938851371229
 One-Electron (beta)  Energy = -2304.16058134567356
 Total Coulomb        Energy = 2160.32685148802329
 Final Alpha MO Eigenvalues
            1           2           3           4           5           6
    1 -11.2990475 -11.2981227 -11.2780041 -11.2778519 -11.2701234 -11.2698819
            7           8           9          10          11          12
    1 -11.2634440 -11.2601455 -11.2513406 -11.2492707 -11.2457783 -11.2446006
           13          14          15          16          17          18
    1 -11.2440410 -11.2424849 -11.2408474 -11.2389062 -11.2384485 -11.2295166
           19          20          21          22          23          24
    1 -11.2237576 -11.2198380 -11.2164189 -11.2149359  -7.6104158  -7.5881791
           25          26          27          28          29          30
    1  -1.1932266  -1.1595106  -1.1430475  -1.0998565  -1.0954079  -1.0524014
           31          32          33          34          35          36
    1  -1.0438832  -1.0342517  -1.0051538  -0.9751623  -0.9546862  -0.9161098
           37          38          39          40          41          42
    1  -0.8648105  -0.8558445  -0.8316893  -0.8291421  -0.7835032  -0.7948045
           43          44          45          46          47          48
    1  -0.7425111  -0.7351739  -0.7067969  -0.6853755  -0.6845982  -0.6533141
           49          50          51          52          53          54
    1  -0.6355237  -0.6357657  -0.6178010  -0.6084968  -0.6002975  -0.6005074
           55          56          57          58          59          60
    1  -0.5690702  -0.5642960  -0.5603519  -0.5590372  -0.5480551  -0.5383718
           61          62          63          64          65          66
    1  -0.5293128  -0.5186882  -0.5058483  -0.5044460  -0.5107386  -0.4868097
           67          68          69          70          71          72
    1  -0.4451515  -0.4382885  -0.4304964  -0.4004295  -0.3611522  -0.3546166
           73          74          75          76          77          78
    1  -0.3342461  -0.2710891  -0.2621153  -0.2406651  -0.5692117  -0.5471968
           79          80          81          82          83          84
    1   0.0565846   0.0597848   0.1216141   0.1350610   0.1518744   0.1667857
           85          86          87          88          89          90
    1   0.2312263   0.2370767   0.2453445   0.2514483   0.2627630   0.2648000
           91          92          93          94          95          96
    1   0.2706287   0.2714148   0.2869468   0.2877891   0.3057429   0.3118133
           97          98          99         100         101         102
    1   0.3333344   0.3375665   0.3604681   0.3587111   0.3755889   0.3746457
          103         104         105         106         107         108
    1   0.3860058   0.3864235   0.4119892   0.4161131   0.4260783   0.4428139
          109         110         111         112         113         114
    1   0.4439963   0.4491426   0.4552069   0.4590319   0.4683183   0.4861435
          115         116         117         118         119         120
    1   0.4867484   0.4941618   0.4954133   0.5254825   0.5314855   0.5324174
          121         122         123         124         125         126
    1   0.5408351   0.5471262   0.5831080   0.6121478   0.6140221   0.6396015
          127         128         129         130         131         132
    1   0.6432546   0.6541070   0.6812055   0.6838220   0.6849555   0.7111123
          133         134         135         136         137         138
    1   0.7254111   0.7333052   0.7426116   0.7418200   0.7468553   0.7608056
          139         140         141         142         143         144
    1   0.7670772   0.7759758   0.7800625   0.7881917   0.7952389   0.7969329
          145         146         147         148         149         150
    1   0.8023413   0.8060832   0.8110375   0.8151491   0.8185214   0.8177968
          151         152         153         154         155         156
    1   0.8269205   0.8253005   0.8334885   0.8367862   0.8457810   0.8522896
          157         158         159         160         161         162
    1   0.8632112   0.8705790   0.8750342   0.8843617   0.8947842   0.9214718
          163         164         165         166         167         168
    1   0.9289185   0.9455137   0.9534722   0.9564234   0.9658774   0.9802752
          169         170         171         172         173         174
    1   1.0037387   1.0034352   1.0176884   1.0289608   1.0450933   1.0479918
          175         176         177         178         179         180
    1   1.0571544   1.0595356   1.0785858   1.0877543   1.0940283   1.0976092
          181         182         183         184         185         186
    1   1.1037802   1.1076322   1.1159126   1.1158908   1.1182038   1.1256813
          187         188         189         190         191         192
    1   1.1263073   1.1276537   1.1291922   1.1483806   1.1517114   1.1596625
          193         194         195         196         197         198
    1   1.1771535   1.1877926   1.1913404   1.2031957   1.2108521   1.2166790
          199         200         201         202         203         204
    1   1.2327580   1.2447224   1.2532691   1.2651806   1.2674277   1.2721378
          205         206         207         208         209         210
    1   1.3167416   1.3211158   1.3164198   1.3516569   1.3455613   1.3613904
          211         212         213         214         215         216
    1   1.3686135   1.3848682   1.3861922   1.3948246   1.4394498   1.4467578
          217         218         219         220         221         222
    1   1.4537743   1.4543255   1.4645606   1.4801502   1.4856025   1.5010574
          223         224         225         226         227         228
    1   1.5122497   1.5216538   1.5261113   1.5311674   1.5381522   1.5464656
          229         230         231         232         233         234
    1   1.5733210   1.5798356   1.6088395   1.6200410   1.6279316   1.6529187
          235         236         237         238         239         240
    1   1.6626074   1.6887857   1.6935384   1.7059130   1.7231748   1.7303671
          241         242         243         244         245         246
    1   1.7388898   1.7482415   1.7485846   1.7524124   1.7653601   1.7679731
          247         248         249         250         251         252
    1   1.7685593   1.7749165   1.7927086   1.8284696   1.8317867   1.8433102
          253         254         255         256         257         258
    1   1.8611830   1.8852614   1.9171073   1.9502626   1.9553070   1.9674313
          259         260         261         262         263         264
    1   1.9714567   1.9857458   1.9969674   2.0211500   2.0619240   2.0676819
          265         266         267         268         269         270
    1   2.0934643   2.0958366   2.1174873   2.1201259   2.1266859   2.1312211
          271         272         273         274         275         276
    1   2.1369961   2.1676577   2.1736115   2.1870385   2.2125529   2.2152146
          277         278         279         280         281         282
    1   2.2364065   2.2504150   2.2652569   2.2685312   2.2723849   2.2855121
          283         284         285         286         287         288
    1   2.2870659   2.2894733   2.3016908   2.3157915   2.3287582   2.3332732
          289         290         291         292         293         294
    1   2.3390456   2.3629200   2.3686781   2.3795049   2.3865761   2.4033259
          295         296         297         298         299         300
    1   2.4061598   2.4087807   2.4458678   2.4743328   2.4875432   2.4972800
          301         302         303         304         305         306
    1   2.5206225   2.5358921   2.5380649   2.5522219   2.5608833   2.5641241
          307         308         309         310         311         312
    1   2.5770153   2.5884391   2.6200186   2.6236488   2.6271765   2.6299536
          313         314         315         316         317         318
    1   2.6401566   2.6453006   2.6482030   2.6595475   2.6769266   2.6938028
          319         320         321         322         323         324
    1   2.7125634   2.7202299   2.7668477   2.7783386   2.8010694   2.8443418
          325         326         327         328         329         330
    1   2.8739170   2.8798606   2.8812509   2.8945592   2.9248929   2.9391418
          331         332         333         334         335         336
    1   2.9496007   2.9828241   3.0042849   3.0180856   3.0192874   3.0465990
          337         338         339         340         341         342
    1   3.0504983   3.0644274   3.0910691   3.1114765   3.1461284   3.1504136
          343         344         345         346         347         348
    1   3.1560876   3.1661833   3.2182526   3.2276224   3.2408228   3.2551437
          349         350         351         352         353         354
    1   3.2968485   3.3352601   3.3545052   3.3832711   3.4371300   3.4767543
          355         356         357         358         359         360
    1   3.5526211   3.6327532   3.6505754   3.7336253   3.8092275   3.8976655
          361         362         363         364         365         366
    1   4.1311512   4.2445544   4.4963361   4.5159594   4.5246872   4.5414827
          367         368         369         370         371         372
    1   4.5468339   4.5664147   4.5982886   4.6228738   4.6370773   4.6738321
          373         374         375         376         377         378
    1   4.6926273   4.7295760   4.7744972   4.8511614   4.8759483   4.9420278
          379         380         381         382         383         384
    1   4.9616679   4.9687906   5.0743478   5.1262894   5.2241837   5.3396280
 Final Beta MO Eigenvalues
            1           2           3           4           5           6
    1 -11.2857986 -11.2844678 -11.2762992 -11.2760765 -11.2690151 -11.2682446
            7           8           9          10          11          12
    1 -11.2627042 -11.2600674 -11.2482653 -11.2490043 -11.2456610 -11.2440007
           13          14          15          16          17          18
    1 -11.2439812 -11.2423383 -11.2407439 -11.2382678 -11.2383971 -11.2293790
           19          20          21          22          23          24
    1 -11.2237085 -11.2183184 -11.2144603 -11.2133956  -7.6023226  -7.5809258
           25          26          27          28          29          30
    1  -1.1757756  -1.1535870  -1.1223991  -1.0910536  -1.0866011  -1.0349911
           31          32          33          34          35          36
    1  -1.0341033  -1.0219067  -0.9955522  -0.9692146  -0.9412104  -0.8944492
           37          38          39          40          41          42
    1  -0.8574189  -0.8362861  -0.8223529  -0.8108736  -0.7785496  -0.7623331
           43          44          45          46          47          48
    1  -0.7340408  -0.7120363  -0.6955526  -0.6748463  -0.6568440  -0.6422188
           49          50          51          52          53          54
    1  -0.6309829  -0.6243094  -0.6098246  -0.5948755  -0.5863999  -0.5789922
           55          56          57          58          59          60
    1  -0.5640105  -0.5537599  -0.5535199  -0.5516786  -0.5316934  -0.5315783
           61          62          63          64          65          66
    1  -0.5182752  -0.5152508  -0.4986756  -0.4986408  -0.4902997  -0.4600550
           67          68          69          70          71          72
    1  -0.4418095  -0.4368733  -0.4133762  -0.3938204  -0.3603877  -0.3508148
           73          74          75          76          77          78
    1  -0.3307657  -0.2649186  -0.2555706  -0.2365225  -0.0832434  -0.0837276
           79          80          81          82          83          84
    1   0.0609873   0.0624462   0.1267827   0.1400004   0.1587714   0.1675879
           85          86          87          88          89          90
    1   0.2350914   0.2426226   0.2483631   0.2544360   0.2659190   0.2665571
           91          92          93          94          95          96
    1   0.2721620   0.2750409   0.2885501   0.2905002   0.3084305   0.3137067
           97          98          99         100         101         102
    1   0.3372112   0.3411825   0.3633401   0.3739861   0.3790342   0.3840255
          103         104         105         106         107         108
    1   0.3904510   0.3968846   0.4208828   0.4224631   0.4341209   0.4487276
          109         110         111         112         113         114
    1   0.4589114   0.4633463   0.4653858   0.4748933   0.4824344   0.4918765
          115         116         117         118         119         120
    1   0.4921024   0.4978663   0.4994651   0.5361267   0.5381450   0.5398860
          121         122         123         124         125         126
    1   0.5481106   0.5555886   0.5952960   0.6240773   0.6257991   0.6457839
          127         128         129         130         131         132
    1   0.6484992   0.6608333   0.6912260   0.6888722   0.6969878   0.7212868
          133         134         135         136         137         138
    1   0.7333877   0.7526174   0.7435702   0.7525677   0.7545915   0.7637237
          139         140         141         142         143         144
    1   0.7678085   0.7775664   0.7808678   0.7958692   0.7996191   0.8039974
          145         146         147         148         149         150
    1   0.8074053   0.8148868   0.8123458   0.8194519   0.8192086   0.8215864
          151         152         153         154         155         156
    1   0.8274588   0.8322774   0.8364378   0.8422558   0.8513364   0.8606191
          157         158         159         160         161         162
    1   0.8650332   0.8759696   0.8756736   0.8848443   0.9176378   0.9235116
          163         164         165         166         167         168
    1   0.9319248   0.9472375   0.9541281   0.9569036   0.9845007   1.0026535
          169         170         171         172         173         174
    1   1.0041649   1.0134905   1.0187301   1.0325201   1.0511011   1.0491011
          175         176         177         178         179         180
    1   1.0702357   1.0701543   1.0870822   1.0942442   1.0970664   1.1000919
          181         182         183         184         185         186
    1   1.1063903   1.1108602   1.1178932   1.1182878   1.1240546   1.1284632
          187         188         189         190         191         192
    1   1.1287349   1.1297139   1.1349735   1.1515190   1.1543379   1.1696763
          193         194         195         196         197         198
    1   1.1795192   1.1917429   1.1965274   1.2083735   1.2143044   1.2203470
          199         200         201         202         203         204
    1   1.2384620   1.2500508   1.2578839   1.2675763   1.2721291   1.2789542
          205         206         207         208         209         210
    1   1.3220872   1.3254766   1.3392343   1.3555592   1.3788867   1.3652155
          211         212         213         214         215         216
    1   1.3705260   1.3922562   1.4055437   1.4001876   1.4454380   1.4530793
          217         218         219         220         221         222
    1   1.4649946   1.4656355   1.4713159   1.4905504   1.4903956   1.5169469
          223         224         225         226         227         228
    1   1.5146161   1.5256219   1.5314378   1.5374731   1.5411602   1.5492889
          229         230         231         232         233         234
    1   1.5791543   1.5852929   1.6164474   1.6232853   1.6345390   1.6550712
          235         236         237         238         239         240
    1   1.6659479   1.7018546   1.6950949   1.7130211   1.7249906   1.7320891
          241         242         243         244         245         246
    1   1.7402236   1.7500631   1.7553940   1.7528907   1.7699165   1.7688244
          247         248         249         250         251         252
    1   1.7725517   1.7818334   1.7958719   1.8320455   1.8423468   1.8467638
          253         254         255         256         257         258
    1   1.8757272   1.8905878   1.9270977   1.9611848   1.9602951   1.9698790
          259         260         261         262         263         264
    1   1.9868013   1.9923012   2.0081789   2.0319570   2.0688416   2.0746694
          265         266         267         268         269         270
    1   2.0986531   2.1016427   2.1225838   2.1273844   2.1339522   2.1340770
          271         272         273         274         275         276
    1   2.1443651   2.1744211   2.1820193   2.1932351   2.2202839   2.2228903
          277         278         279         280         281         282
    1   2.2407744   2.2561296   2.2710859   2.2718518   2.2784421   2.2867618
          283         284         285         286         287         288
    1   2.2896391   2.2958353   2.3048538   2.3218706   2.3298795   2.3392613
          289         290         291         292         293         294
    1   2.3408134   2.3808614   2.3750375   2.3867843   2.3930009   2.4099404
          295         296         297         298         299         300
    1   2.4132481   2.4132005   2.4494342   2.4786996   2.4958072   2.5043857
          301         302         303         304         305         306
    1   2.5305636   2.5391160   2.5408916   2.5575328   2.5650094   2.5671514
          307         308         309         310         311         312
    1   2.5846651   2.5935829   2.6226275   2.6272166   2.6310155   2.6342508
          313         314         315         316         317         318
    1   2.6447119   2.6480924   2.6529392   2.6610990   2.6789340   2.6991113
          319         320         321         322         323         324
    1   2.7159675   2.7224672   2.7688653   2.7875265   2.8210517   2.8502714
          325         326         327         328         329         330
    1   2.8775466   2.8871430   2.8847536   2.8971472   2.9316618   2.9426675
          331         332         333         334         335         336
    1   2.9579053   2.9864343   3.0055977   3.0207679   3.0237443   3.0507258
          337         338         339         340         341         342
    1   3.0579987   3.0714148   3.0943470   3.1139599   3.1489322   3.1544434
          343         344         345         346         347         348
    1   3.1609996   3.1723375   3.2262281   3.2329414   3.2459232   3.2600189
          349         350         351         352         353         354
    1   3.3027668   3.3444295   3.3570111   3.3867892   3.4418812   3.4794921
          355         356         357         358         359         360
    1   3.5579637   3.6404200   3.6562731   3.7398755   3.8167545   3.9035395
          361         362         363         364         365         366
    1   4.1400464   4.2529803   4.4972383   4.5165902   4.5260171   4.5426103
          367         368         369         370         371         372
    1   4.5484312   4.5674466   4.5993217   4.6255354   4.6385427   4.6751903
          373         374         375         376         377         378
    1   4.6969288   4.7318964   4.7752057   4.8551358   4.8787501   4.9465878
          379         380         381         382         383         384
    1   4.9638239   4.9704948   5.0823963   5.1289211   5.2285089   5.3424706
 SCF time:   CPU 1608.71s  wall 1616.00s 
<S^2> =          2.000000000
 SCF   energy in the final basis set =     -889.2023492857
 Total energy in the final basis set =     -889.2023492857
  
     ##========================================##
     ||                                        ||
     ||              R A S M A N 2             ||
     ||________________________________________||
     ||                                        ||
     ||  Author:                               ||
     ||                                        ||
     ||        David Casanova (2010)           ||
     ||                                        ||
     ##========================================##
  
Setting single-point xc-functionals (if necessary)

  ***************************************************
  *  RAS-CI Dimensions:                             *
  *                                                 *
  *  Active Elec.:   4 ( 3, 1)   Active Orb.:   4   *
  *  Doubly Occ. :  75           Doubly Vir.: 305   *
  *  Frozen Occ. :   0           Frozen Vir.:   0   *
  *                                                 *
  *  Total CI configurations:     10656             * 
  *    Active configurations:        16             * 
  *      Hole configurations:      2100             * 
  *  Particle configurations:      8540             * 
  *                                                 *
  *   Requested states:       20                    *
  *  Spin multiplicity: Any multiplicity            *
  *                                                 *
  ***************************************************
-----------------------------------------
    Memory requirements of RASCI

 Each CI-vector requires      0.08 MiB 
 Max. subspace vectors           3000      

 Reduced Lists                0.00 MiB 
 Excitation Lists             0.00 MiB 
 Excitation Lists Sign        0.00 MiB 
 CI-space (Max)             314.21 MiB 
 Integrals                   30.92 MiB 
 Memory required (Max)      314.21 MiB 
 Memory available          7811.55 MiB 

    Disk requirements of RASCI

 Fock matrix                  2.25 MiB 
 2-electron integrals        54.13 MiB 
 CI-space                   487.79 MiB 
 Disk required              544.17 MiB 
-----------------------------------------
  
RAS1 HF-like energy:           -886.5686869187
 Computing integrals
 Computing J and K matrices
 Computing addressing
 Making amplitude guesses
 
Direct CI diagonalization
 ---------------------------------------------------
 Iter    Rts Conv    Rts Left    Ttl Dev     Max Dev
 ---------------------------------------------------
   1         0          20      0.017401    0.002023
   2         0          20      0.008718    0.000964
   3         0          20      0.009243    0.001773
   4         0          20      0.008765    0.001929
   5         0          20      0.012726    0.002754
   6         1          19      0.013352    0.002645
   7         4          16      0.010203    0.001601
   8         5          15      0.007473    0.002291
   9         4          16      0.005802    0.001232
  10         6          14      0.003821    0.000795
  11         7          13      0.002514    0.000561
  12         7          13      0.001851    0.000477
  13         8          12      0.002494    0.001237
  14         8          12      0.002484    0.000804
  15         9          11      0.001754    0.000610
  16        10          10      0.000807    0.000276
  17        10          10      0.000814    0.000432
  18        12           8      0.000504    0.000280
  19        13           7      0.000303    0.000189
  20        14           6      0.000180    0.000126
  21        15           5      0.000099    0.000070
  22        15           5      0.000054    0.000038
  23        16           4      0.000031    0.000022
  24        19           1      0.000017    0.000011
  25        19           1      0.000013    0.000006
  26        19           1      0.000010    0.000004
  27        19           1      0.000009    0.000002
  28        19           1      0.000008    0.000002
  29        19           1      0.000007    0.000001
  30        20           0      0.000007    0.000001    Roots Converged
 ---------------------------------------------------
   
**************************************************
 RAS-CI total energy for state   1:   -889.385349059974
  Excitation energy (eV) =  0.000000000000
  State symmetry: A'    (Cs       )
  <S^2>      :  2.0000
  Dipole Moment:   -0.1790 X    -0.5002 Y    -0.0000 Z
 NATURAL OCCUPATION NUMBERS (higher than 1.0E-05)
            1           2           3           4           5           6
    1   2.0000000   2.0000000   2.0000000   2.0000000   2.0000000   2.0000000
            7           8           9          10          11          12
    1   2.0000000   2.0000000   2.0000000   2.0000000   2.0000000   2.0000000
           13          14          15          16          17          18
    1   2.0000000   2.0000000   2.0000000   2.0000000   2.0000000   2.0000000
           19          20          21          22          23          24
    1   2.0000000   2.0000000   2.0000000   2.0000000   2.0000000   2.0000000
           25          26          27          28          29          30
    1   2.0000000   2.0000000   2.0000000   2.0000000   2.0000000   2.0000000
           31          32          33          34          35          36
    1   2.0000000   2.0000000   2.0000000   2.0000000   2.0000000   2.0000000
           37          38          39          40          41          42
    1   2.0000000   2.0000000   2.0000000   2.0000000   2.0000000   2.0000000
           43          44          45          46          47          48
    1   2.0000000   2.0000000   2.0000000   2.0000000   2.0000000   2.0000000
           49          50          51          52          53          54
    1   2.0000000   2.0000000   2.0000000   2.0000000   2.0000000   2.0000000
           55          56          57          58          59          60
    1   2.0000000   2.0000000   2.0000000   2.0000000   2.0000000   2.0000000
           61          62          63          64          65          66
    1   2.0000000   2.0000000   2.0000000   2.0000000   2.0000000   1.9999999
           67          68          69          70          71          72
    1   1.9999996   1.9999994   1.9999987   1.9999983   1.9999979   1.9999900
           73          74          75          76          77          78
    1   1.9999714   1.9997053   1.9996334   1.9987448   1.0011114   0.9996486
           79          80          81
    1   0.0006120   0.0005207   0.0000541
 Created directory ./qchem70065/plots

  Amplitudes : 
  
 | HOLE  | ALPHA | BETA  | PART  |    AMPLITUDE 
--------------------------------------------------
 |  57   | 1110  | 0110  |       |    -1.0126461746815E-01
 |  62   | 1110  | 0110  |       |     1.4338293841089E-01
 |  64   | 1110  | 0110  |       |     2.2767005531297E-01
 |  67   | 1110  | 0110  |       |    -1.2093273673714E-01
 |  72   | 1110  | 0110  |       |     1.9161834454113E-01
 |  73   | 1110  | 0110  |       |    -1.2469527710906E-01
 |  74   | 1110  | 0110  |       |    -5.8014948146621E-01
 |  75   | 1110  | 0110  |       |     6.9027790939803E-01
 |  75   | 0111  | 0110  |       |    -1.2602551294967E-01
--------------------------------------------------
*** Contributions RASCI wfn    Active:   0.00
                                 Hole:  99.93
                                 Part:   0.07

      Mulliken population analysis 
 ---------------------------------------------------
   Atom    Charge (a.u.)   Spin (a.u.)  
 ---------------------------------------------------
   1  H    0.198854        0.000000 
   2  H    0.201949        0.000000 
   3  H    0.204710        0.000000 
   4  H    0.218141        0.000000 
   5  H    0.209904        0.000000 
   6  H    0.226307        0.000000 
   7  H    0.188545        0.000000 
   8  H    0.191893        0.000000 
   9  B    0.345555        0.239169 
  10  B    0.261012        0.165701 
  11  H    0.221324        0.000001 
  12  H    0.226161        0.000001 
  13  C   -0.218331        0.010917 
  14  C   -0.201702        0.000554 
  15  C   -0.156106        0.102412 
  16  C   -0.275365        0.383455 
  17  C   -0.146438        0.109828 
  18  C    0.051849        0.039487 
  19  C    0.039580        0.009592 
  20  C   -0.171078        0.034353 
  21  C   -0.128466        0.038876 
  22  C   -0.148155        0.052243 
  23  C   -0.118441        0.029484 
  24  C   -0.176021        0.063776 
  25  C   -0.155815        0.024543 
  26  C   -0.564234        0.038783 
  27  C   -0.197083        0.037915 
  28  C    0.035672        0.017531 
  29  C    0.096920        0.025726 
  30  C   -0.123897        0.206949 
  31  C   -0.088072        0.204607 
  32  C   -0.153078        0.144916 
  33  C   -0.154497        0.011650 
  34  C   -0.134694        0.007531 
  35  H    0.196605        0.000000 
  36  H    0.196493        0.000000 
 ---------------------------------------------------
   Sum:    0.000000        2.000000 
 ---------------------------------------------------
 
  
 NATURAL OCCUPATION NUMBERS (higher than 1.0E-05)
            1           2           3           4           5           6
    1   2.0000000   2.0000000   2.0000000   2.0000000   2.0000000   2.0000000
            7           8           9          10          11          12
    1   2.0000000   2.0000000   2.0000000   2.0000000   2.0000000   2.0000000
           13          14          15          16          17          18
    1   2.0000000   2.0000000   2.0000000   2.0000000   2.0000000   2.0000000
           19          20          21          22          23          24
    1   2.0000000   2.0000000   2.0000000   2.0000000   2.0000000   2.0000000
           25          26          27          28          29          30
    1   2.0000000   2.0000000   2.0000000   2.0000000   2.0000000   2.0000000
           31          32          33          34          35          36
    1   2.0000000   2.0000000   2.0000000   2.0000000   2.0000000   2.0000000
           37          38          39          40          41          42
    1   2.0000000   2.0000000   2.0000000   2.0000000   2.0000000   2.0000000
           43          44          45          46          47          48
    1   2.0000000   2.0000000   2.0000000   2.0000000   2.0000000   2.0000000
           49          50          51          52          53          54
    1   2.0000000   2.0000000   2.0000000   2.0000000   2.0000000   2.0000000
           55          56          57          58          59          60
    1   2.0000000   2.0000000   2.0000000   2.0000000   2.0000000   2.0000000
           61          62          63          64          65          66
    1   2.0000000   2.0000000   2.0000000   2.0000000   2.0000000   1.9999999
           67          68          69          70          71          72
    1   1.9999996   1.9999994   1.9999987   1.9999983   1.9999979   1.9999900
           73          74          75          76          77          78
    1   1.9999714   1.9997053   1.9996334   1.9987448   1.0011114   0.9996486
           79          80          81
    1   0.0006120   0.0005207   0.0000541
  
*** Unpaired Electrons
 Yamaguchi Nd:         2.01
 Head-Gordon Nu:       2.00
 Head-Gordon Nu_nl:    2.00
  
**************************************************
 RAS-CI total energy for state   2:   -889.329375727154
  Excitation energy (eV) =  1.523111879537
  State symmetry: A"    (Cs       )
  <S^2>      :  2.0000
  Dipole Moment:   -0.4515 X    -0.0784 Y     0.0000 Z
  Trans. Moment:   -0.0000 X     0.0000 Y    -0.0926 Z
  Strength   :  0.000320
  Natural transition orbitals ( 1 -> 2 ):
   e-/hole pair  1 alpha:  ampl =  0.021749 (  0.0%)   [4 : 5]
   e-/hole pair  2 alpha:  ampl =  0.002505 (  0.0%)   [3 : 6]
   e-/hole pair  1 beta :  ampl =  0.925900 ( 85.7%)   [4 : 5]
   e-/hole pair  2 beta :  ampl =  0.038487 (  0.1%)   [3 : 6]
   Sum of square amplitudes: 0.86

 NATURAL OCCUPATION NUMBERS (higher than 1.0E-05)
            1           2           3           4           5           6
    1   2.0000000   2.0000000   2.0000000   2.0000000   2.0000000   2.0000000
            7           8           9          10          11          12
    1   2.0000000   2.0000000   2.0000000   2.0000000   2.0000000   2.0000000
           13          14          15          16          17          18
    1   2.0000000   2.0000000   2.0000000   2.0000000   2.0000000   2.0000000
           19          20          21          22          23          24
    1   2.0000000   2.0000000   2.0000000   2.0000000   2.0000000   2.0000000
           25          26          27          28          29          30
    1   2.0000000   2.0000000   2.0000000   2.0000000   2.0000000   2.0000000
           31          32          33          34          35          36
    1   2.0000000   2.0000000   2.0000000   2.0000000   2.0000000   2.0000000
           37          38          39          40          41          42
    1   2.0000000   2.0000000   2.0000000   2.0000000   2.0000000   2.0000000
           43          44          45          46          47          48
    1   2.0000000   2.0000000   2.0000000   2.0000000   2.0000000   2.0000000
           49          50          51          52          53          54
    1   2.0000000   2.0000000   2.0000000   2.0000000   2.0000000   2.0000000
           55          56          57          58          59          60
    1   2.0000000   2.0000000   2.0000000   2.0000000   2.0000000   2.0000000
           61          62          63          64          65          66
    1   2.0000000   1.9999999   1.9999992   1.9999987   1.9999944   1.9999891
           67          68          69          70          71          72
    1   1.9999856   1.9999688   1.9999378   1.9999076   1.9994596   1.9986962
           73          74          75          76          77          78
    1   1.9986046   1.9976726   1.9938833   1.9853796   1.0056428   1.0024454
           79          80          81          82          83          84
    1   0.0122708   0.0033599   0.0022671   0.0002931   0.0000979   0.0000658
           85          86          87
    1   0.0000273   0.0000208   0.0000107

  Amplitudes : 
  
 | HOLE  | ALPHA | BETA  | PART  |    AMPLITUDE 
--------------------------------------------------
 |       | 1110  | 0100  |       |     5.3532273758239E-01
 |       | 1110  | 0010  |       |     6.9331743751959E-01
 |       | 0111  | 0010  |       |    -1.0051632969227E-01
 |  70   | 1110  | 1100  |       |     1.0910071305253E-01
 |  74   | 1110  | 1100  |       |     1.7579280156708E-01
 |  75   | 1110  | 1100  |       |    -1.0755100051805E-01
 |  70   | 1110  | 1010  |       |     1.4947005776079E-01
 |  74   | 1110  | 1010  |       |     2.0031363650406E-01
--------------------------------------------------
*** Contributions RASCI wfn    Active:  78.39
                                 Hole:  18.93
                                 Part:   2.68

      Mulliken population analysis 
 ---------------------------------------------------
   Atom    Charge (a.u.)   Spin (a.u.)  
 ---------------------------------------------------
   1  H    0.199184        0.000327 
   2  H    0.201881        0.000372 
   3  H    0.204710        0.000003 
   4  H    0.218204        0.000005 
   5  H    0.209563        0.000106 
   6  H    0.224258        0.000071 
   7  H    0.188826        0.000212 
   8  H    0.192101        0.000228 
   9  B    0.413832        0.304132 
  10  B    0.296041        0.196120 
  11  H    0.242712        0.022477 
  12  H    0.247437        0.022006 
  13  C   -0.181871        0.042577 
  14  C   -0.163557        0.041842 
  15  C   -0.251504        0.003060 
  16  C   -0.212871        0.476287 
  17  C   -0.273662        0.003075 
  18  C    0.043873        0.014970 
  19  C    0.038057        0.014858 
  20  C   -0.191734        0.004966 
  21  C   -0.127249        0.042380 
  22  C   -0.147390        0.044561 
  23  C   -0.216803       -0.003766 
  24  C   -0.196697        0.019706 
  25  C   -0.143002        0.040590 
  26  C   -0.281435        0.087305 
  27  C   -0.209962        0.007821 
  28  C    0.039147        0.012563 
  29  C    0.016382       -0.010431 
  30  C   -0.174133        0.198768 
  31  C   -0.087683        0.256335 
  32  C   -0.163055        0.160188 
  33  C   -0.185030       -0.003698 
  34  C   -0.159647        0.000070 
  35  H    0.196861       -0.000012 
  36  H    0.194216       -0.000073 
 ---------------------------------------------------
   Sum:    0.000000        2.000000 
 ---------------------------------------------------
 
  
 NATURAL OCCUPATION NUMBERS (higher than 1.0E-05)
            1           2           3           4           5           6
    1   2.0000000   2.0000000   2.0000000   2.0000000   2.0000000   2.0000000
            7           8           9          10          11          12
    1   2.0000000   2.0000000   2.0000000   2.0000000   2.0000000   2.0000000
           13          14          15          16          17          18
    1   2.0000000   2.0000000   2.0000000   2.0000000   2.0000000   2.0000000
           19          20          21          22          23          24
    1   2.0000000   2.0000000   2.0000000   2.0000000   2.0000000   2.0000000
           25          26          27          28          29          30
    1   2.0000000   2.0000000   2.0000000   2.0000000   2.0000000   2.0000000
           31          32          33          34          35          36
    1   2.0000000   2.0000000   2.0000000   2.0000000   2.0000000   2.0000000
           37          38          39          40          41          42
    1   2.0000000   2.0000000   2.0000000   2.0000000   2.0000000   2.0000000
           43          44          45          46          47          48
    1   2.0000000   2.0000000   2.0000000   2.0000000   2.0000000   2.0000000
           49          50          51          52          53          54
    1   2.0000000   2.0000000   2.0000000   2.0000000   2.0000000   2.0000000
           55          56          57          58          59          60
    1   2.0000000   2.0000000   2.0000000   2.0000000   2.0000000   2.0000000
           61          62          63          64          65          66
    1   2.0000000   1.9999999   1.9999992   1.9999987   1.9999944   1.9999891
           67          68          69          70          71          72
    1   1.9999856   1.9999688   1.9999378   1.9999076   1.9994596   1.9986962
           73          74          75          76          77          78
    1   1.9986046   1.9976726   1.9938833   1.9853796   1.0056428   1.0024454
           79          80          81          82          83          84
    1   0.0122708   0.0033599   0.0022671   0.0002931   0.0000979   0.0000658
           85          86          87
    1   0.0000273   0.0000208   0.0000107
  
*** Unpaired Electrons
 Yamaguchi Nd:         2.09
 Head-Gordon Nu:       2.04
 Head-Gordon Nu_nl:    2.00
  
**************************************************
 RAS-CI total energy for state   3:   -889.313740073239
  Excitation energy (eV) =  1.948579669701
  State symmetry: A"    (Cs       )
  <S^2>      :  2.0000
  Dipole Moment:    0.7118 X     0.7038 Y     0.0000 Z
  Trans. Moment:    0.0000 X     0.0000 Y     0.0327 Z
  Strength   :  0.000051
  Natural transition orbitals ( 1 -> 3 ):
   e-/hole pair  1 alpha:  ampl =  0.015229 (  0.0%)   [4 : 5]
   e-/hole pair  2 alpha:  ampl =  0.005732 (  0.0%)   [3 : 6]
   e-/hole pair  1 beta :  ampl =  0.970026 ( 94.1%)   [4 : 5]
   e-/hole pair  2 beta :  ampl =  0.037252 (  0.1%)   [3 : 6]
   Sum of square amplitudes: 0.94

 NATURAL OCCUPATION NUMBERS (higher than 1.0E-05)
            1           2           3           4           5           6
    1   2.0000000   2.0000000   2.0000000   2.0000000   2.0000000   2.0000000
            7           8           9          10          11          12
    1   2.0000000   2.0000000   2.0000000   2.0000000   2.0000000   2.0000000
           13          14          15          16          17          18
    1   2.0000000   2.0000000   2.0000000   2.0000000   2.0000000   2.0000000
           19          20          21          22          23          24
    1   2.0000000   2.0000000   2.0000000   2.0000000   2.0000000   2.0000000
           25          26          27          28          29          30
    1   2.0000000   2.0000000   2.0000000   2.0000000   2.0000000   2.0000000
           31          32          33          34          35          36
    1   2.0000000   2.0000000   2.0000000   2.0000000   2.0000000   2.0000000
           37          38          39          40          41          42
    1   2.0000000   2.0000000   2.0000000   2.0000000   2.0000000   2.0000000
           43          44          45          46          47          48
    1   2.0000000   2.0000000   2.0000000   2.0000000   2.0000000   2.0000000
           49          50          51          52          53          54
    1   2.0000000   2.0000000   2.0000000   2.0000000   2.0000000   2.0000000
           55          56          57          58          59          60
    1   2.0000000   2.0000000   2.0000000   2.0000000   2.0000000   2.0000000
           61          62          63          64          65          66
    1   2.0000000   2.0000000   1.9999999   1.9999992   1.9999988   1.9999968
           67          68          69          70          71          72
    1   1.9999949   1.9999921   1.9999786   1.9999744   1.9999176   1.9998909
           73          74          75          76          77          78
    1   1.9994916   1.9988621   1.9967936   1.9872959   1.0046270   1.0015484
           79          80          81          82          83          84
    1   0.0103099   0.0006823   0.0003615   0.0001837   0.0000469   0.0000237
           85          86
    1   0.0000130   0.0000129

  Amplitudes : 
  
 | HOLE  | ALPHA | BETA  | PART  |    AMPLITUDE 
--------------------------------------------------
 |       | 1110  | 0100  |       |    -1.2498190755589E-01
 |  57   | 1110  | 1100  |       |     1.1464021170955E-01
 |  62   | 1110  | 1100  |       |    -1.0535164786558E-01
 |  64   | 1110  | 1100  |       |    -1.6746442828785E-01
 |  67   | 1110  | 1100  |       |     1.3817546590020E-01
 |  70   | 1110  | 1100  |       |    -1.1469321988152E-01
 |  72   | 1110  | 1100  |       |    -2.0274612990680E-01
 |  74   | 1110  | 1100  |       |     4.0178953984564E-01
 |  75   | 1110  | 1100  |       |    -5.7768006130077E-01
 |  64   | 1110  | 1010  |       |     1.2513411088990E-01
 |  67   | 1110  | 1010  |       |    -1.0021151774400E-01
 |  72   | 1110  | 1010  |       |     1.5760761688632E-01
 |  74   | 1110  | 1010  |       |    -2.9668727672933E-01
 |  75   | 1110  | 1010  |       |     4.2710279060060E-01
--------------------------------------------------
*** Contributions RASCI wfn    Active:   1.82
                                 Hole:  98.05
                                 Part:   0.13

      Mulliken population analysis 
 ---------------------------------------------------
   Atom    Charge (a.u.)   Spin (a.u.)  
 ---------------------------------------------------
   1  H    0.198869        0.000014 
   2  H    0.203270        0.001324 
   3  H    0.204801        0.000092 
   4  H    0.219387        0.001249 
   5  H    0.210826        0.000925 
   6  H    0.229829        0.003540 
   7  H    0.188928        0.000385 
   8  H    0.192068        0.000175 
   9  B    0.335624        0.237238 
  10  B    0.360723        0.303351 
  11  H    0.221099        0.000035 
  12  H    0.226000        0.000110 
  13  C   -0.219218       -0.001749 
  14  C   -0.203145        0.003283 
  15  C   -0.147941        0.110145 
  16  C   -0.257813        0.420100 
  17  C   -0.164616        0.111968 
  18  C    0.047951        0.007226 
  19  C    0.061569        0.038082 
  20  C   -0.204156        0.006999 
  21  C   -0.159720        0.023952 
  22  C   -0.134686        0.069201 
  23  C   -0.188076        0.012774 
  24  C   -0.196353        0.004924 
  25  C   -0.145586        0.032766 
  26  C   -0.161801        0.455109 
  27  C   -0.196034        0.023545 
  28  C    0.043236        0.016056 
  29  C    0.080109        0.046331 
  30  C   -0.269547       -0.010031 
  31  C   -0.191835        0.048656 
  32  C   -0.285168        0.002384 
  33  C   -0.161390        0.019092 
  34  C   -0.137485        0.003533 
  35  H    0.198419        0.001818 
  36  H    0.201863        0.005400 
 ---------------------------------------------------
   Sum:    0.000000        2.000000 
 ---------------------------------------------------
 
  
 NATURAL OCCUPATION NUMBERS (higher than 1.0E-05)
            1           2           3           4           5           6
    1   2.0000000   2.0000000   2.0000000   2.0000000   2.0000000   2.0000000
            7           8           9          10          11          12
    1   2.0000000   2.0000000   2.0000000   2.0000000   2.0000000   2.0000000
           13          14          15          16          17          18
    1   2.0000000   2.0000000   2.0000000   2.0000000   2.0000000   2.0000000
           19          20          21          22          23          24
    1   2.0000000   2.0000000   2.0000000   2.0000000   2.0000000   2.0000000
           25          26          27          28          29          30
    1   2.0000000   2.0000000   2.0000000   2.0000000   2.0000000   2.0000000
           31          32          33          34          35          36
    1   2.0000000   2.0000000   2.0000000   2.0000000   2.0000000   2.0000000
           37          38          39          40          41          42
    1   2.0000000   2.0000000   2.0000000   2.0000000   2.0000000   2.0000000
           43          44          45          46          47          48
    1   2.0000000   2.0000000   2.0000000   2.0000000   2.0000000   2.0000000
           49          50          51          52          53          54
    1   2.0000000   2.0000000   2.0000000   2.0000000   2.0000000   2.0000000
           55          56          57          58          59          60
    1   2.0000000   2.0000000   2.0000000   2.0000000   2.0000000   2.0000000
           61          62          63          64          65          66
    1   2.0000000   2.0000000   1.9999999   1.9999992   1.9999988   1.9999968
           67          68          69          70          71          72
    1   1.9999949   1.9999921   1.9999786   1.9999744   1.9999176   1.9998909
           73          74          75          76          77          78
    1   1.9994916   1.9988621   1.9967936   1.9872959   1.0046270   1.0015484
           79          80          81          82          83          84
    1   0.0103099   0.0006823   0.0003615   0.0001837   0.0000469   0.0000237
           85          86
    1   0.0000130   0.0000129
  
*** Unpaired Electrons
 Yamaguchi Nd:         2.06
 Head-Gordon Nu:       2.02
 Head-Gordon Nu_nl:    2.00
  
**************************************************
 RAS-CI total energy for state   4:   -889.270062130094
  Excitation energy (eV) =  3.137116973571
  State symmetry: A'    (Cs       )
  <S^2>      :  2.0000
  Dipole Moment:    0.9157 X    -1.3765 Y     0.0000 Z
  Trans. Moment:   -0.7397 X     0.2195 Y    -0.0000 Z
  Strength   :  0.045756
  Natural transition orbitals ( 1 -> 4 ):
   e-/hole pair  1 alpha:  ampl =  0.029992 (  0.1%)   [4 : 5]
   e-/hole pair  2 alpha:  ampl =  0.008522 (  0.0%)   [3 : 6]
   e-/hole pair  1 beta :  ampl =  0.997652 ( 99.5%)   [4 : 5]
   e-/hole pair  2 beta :  ampl =  0.001134 (  0.0%)   [3 : 6]
   Sum of square amplitudes: 1.00

 NATURAL OCCUPATION NUMBERS (higher than 1.0E-05)
            1           2           3           4           5           6
    1   2.0000000   2.0000000   2.0000000   2.0000000   2.0000000   2.0000000
            7           8           9          10          11          12
    1   2.0000000   2.0000000   2.0000000   2.0000000   2.0000000   2.0000000
           13          14          15          16          17          18
    1   2.0000000   2.0000000   2.0000000   2.0000000   2.0000000   2.0000000
           19          20          21          22          23          24
    1   2.0000000   2.0000000   2.0000000   2.0000000   2.0000000   2.0000000
           25          26          27          28          29          30
    1   2.0000000   2.0000000   2.0000000   2.0000000   2.0000000   2.0000000
           31          32          33          34          35          36
    1   2.0000000   2.0000000   2.0000000   2.0000000   2.0000000   2.0000000
           37          38          39          40          41          42
    1   2.0000000   2.0000000   2.0000000   2.0000000   2.0000000   2.0000000
           43          44          45          46          47          48
    1   2.0000000   2.0000000   2.0000000   2.0000000   2.0000000   2.0000000
           49          50          51          52          53          54
    1   2.0000000   2.0000000   2.0000000   2.0000000   2.0000000   2.0000000
           55          56          57          58          59          60
    1   2.0000000   2.0000000   2.0000000   2.0000000   2.0000000   2.0000000
           61          62          63          64          65          66
    1   2.0000000   2.0000000   2.0000000   2.0000000   2.0000000   1.9999999
           67          68          69          70          71          72
    1   1.9999997   1.9999997   1.9999996   1.9999992   1.9999966   1.9999948
           73          74          75          76          77          78
    1   1.9999864   1.9999505   1.9998511   1.9964925   1.0035619   0.9965131
           79          80
    1   0.0036346   0.0000112

  Amplitudes : 
  
 | HOLE  | ALPHA | BETA  | PART  |    AMPLITUDE 
--------------------------------------------------
 |  70   | 1110  | 0110  |       |    -1.9114996528824E-01
 |  71   | 1110  | 0110  |       |    -3.1330604553059E-01
 |  72   | 1110  | 0110  |       |     1.7604762623876E-01
 |  73   | 1110  | 0110  |       |    -4.5498335781963E-01
 |  74   | 1110  | 0110  |       |     6.3868159798149E-01
 |  75   | 1110  | 0110  |       |     3.9830144526769E-01
 |  74   | 0111  | 0110  |       |    -1.0310872347432E-01
 |  75   | 0111  | 0110  |       |    -1.1120554006272E-01
--------------------------------------------------
*** Contributions RASCI wfn    Active:   0.00
                                 Hole: 100.00
                                 Part:   0.00

      Mulliken population analysis 
 ---------------------------------------------------
   Atom    Charge (a.u.)   Spin (a.u.)  
 ---------------------------------------------------
   1  H    0.198853        0.000000 
   2  H    0.201948        0.000000 
   3  H    0.204710        0.000000 
   4  H    0.218141        0.000000 
   5  H    0.209904        0.000000 
   6  H    0.226306        0.000000 
   7  H    0.188544        0.000000 
   8  H    0.191893        0.000000 
   9  B    0.112332        0.006049 
  10  B    0.226738        0.129542 
  11  H    0.221296        0.000000 
  12  H    0.226133        0.000000 
  13  C   -0.125050        0.104671 
  14  C   -0.017023        0.185507 
  15  C   -0.199021        0.059397 
  16  C   -0.634805        0.023898 
  17  C   -0.199640        0.056764 
  18  C    0.085858        0.074526 
  19  C    0.154427        0.124322 
  20  C   -0.170332        0.034744 
  21  C   -0.082577        0.084458 
  22  C    0.004203        0.204352 
  23  C   -0.119352        0.028217 
  24  C   -0.161927        0.078875 
  25  C   -0.165073        0.015268 
  26  C   -0.588819        0.014406 
  27  C   -0.148149        0.087135 
  28  C    0.051613        0.033677 
  29  C    0.126834        0.055409 
  30  C   -0.123740        0.207669 
  31  C   -0.089399        0.203183 
  32  C   -0.152538        0.144597 
  33  C   -0.143201        0.022927 
  34  C   -0.122183        0.020404 
  35  H    0.196605        0.000000 
  36  H    0.196492        0.000000 
 ---------------------------------------------------
   Sum:    0.000000        2.000000 
 ---------------------------------------------------
 
  
 NATURAL OCCUPATION NUMBERS (higher than 1.0E-05)
            1           2           3           4           5           6
    1   2.0000000   2.0000000   2.0000000   2.0000000   2.0000000   2.0000000
            7           8           9          10          11          12
    1   2.0000000   2.0000000   2.0000000   2.0000000   2.0000000   2.0000000
           13          14          15          16          17          18
    1   2.0000000   2.0000000   2.0000000   2.0000000   2.0000000   2.0000000
           19          20          21          22          23          24
    1   2.0000000   2.0000000   2.0000000   2.0000000   2.0000000   2.0000000
           25          26          27          28          29          30
    1   2.0000000   2.0000000   2.0000000   2.0000000   2.0000000   2.0000000
           31          32          33          34          35          36
    1   2.0000000   2.0000000   2.0000000   2.0000000   2.0000000   2.0000000
           37          38          39          40          41          42
    1   2.0000000   2.0000000   2.0000000   2.0000000   2.0000000   2.0000000
           43          44          45          46          47          48
    1   2.0000000   2.0000000   2.0000000   2.0000000   2.0000000   2.0000000
           49          50          51          52          53          54
    1   2.0000000   2.0000000   2.0000000   2.0000000   2.0000000   2.0000000
           55          56          57          58          59          60
    1   2.0000000   2.0000000   2.0000000   2.0000000   2.0000000   2.0000000
           61          62          63          64          65          66
    1   2.0000000   2.0000000   2.0000000   2.0000000   2.0000000   1.9999999
           67          68          69          70          71          72
    1   1.9999997   1.9999997   1.9999996   1.9999992   1.9999966   1.9999948
           73          74          75          76          77          78
    1   1.9999864   1.9999505   1.9998511   1.9964925   1.0035619   0.9965131
           79          80
    1   0.0036346   0.0000112
  
*** Unpaired Electrons
 Yamaguchi Nd:         2.01
 Head-Gordon Nu:       2.00
 Head-Gordon Nu_nl:    2.00
  
**************************************************
 RAS-CI total energy for state   5:   -889.261302952260
  Excitation energy (eV) =  3.375466329252
  State symmetry: A"    (Cs       )
  <S^2>      :  2.0000
  Dipole Moment:    0.2137 X    -2.6710 Y    -0.0000 Z
  Trans. Moment:    0.0000 X    -0.0000 Y    -0.0450 Z
  Strength   :  0.000167
  Natural transition orbitals ( 1 -> 5 ):
   e-/hole pair  1 alpha:  ampl =  0.017168 (  0.0%)   [4 : 5]
   e-/hole pair  2 alpha:  ampl =  0.007927 (  0.0%)   [3 : 6]
   e-/hole pair  1 beta :  ampl =  0.911280 ( 83.0%)   [4 : 5]
   e-/hole pair  2 beta :  ampl =  0.066633 (  0.4%)   [3 : 6]
   Sum of square amplitudes: 0.84

 NATURAL OCCUPATION NUMBERS (higher than 1.0E-05)
            1           2           3           4           5           6
    1   2.0000000   2.0000000   2.0000000   2.0000000   2.0000000   2.0000000
            7           8           9          10          11          12
    1   2.0000000   2.0000000   2.0000000   2.0000000   2.0000000   2.0000000
           13          14          15          16          17          18
    1   2.0000000   2.0000000   2.0000000   2.0000000   2.0000000   2.0000000
           19          20          21          22          23          24
    1   2.0000000   2.0000000   2.0000000   2.0000000   2.0000000   2.0000000
           25          26          27          28          29          30
    1   2.0000000   2.0000000   2.0000000   2.0000000   2.0000000   2.0000000
           31          32          33          34          35          36
    1   2.0000000   2.0000000   2.0000000   2.0000000   2.0000000   2.0000000
           37          38          39          40          41          42
    1   2.0000000   2.0000000   2.0000000   2.0000000   2.0000000   2.0000000
           43          44          45          46          47          48
    1   2.0000000   2.0000000   2.0000000   2.0000000   2.0000000   2.0000000
           49          50          51          52          53          54
    1   2.0000000   2.0000000   2.0000000   2.0000000   2.0000000   2.0000000
           55          56          57          58          59          60
    1   2.0000000   2.0000000   2.0000000   1.9999999   1.9999999   1.9999997
           61          62          63          64          65          66
    1   1.9999996   1.9999993   1.9999991   1.9999986   1.9999948   1.9999904
           67          68          69          70          71          72
    1   1.9999868   1.9999707   1.9999018   1.9995505   1.9985771   1.9931178
           73          74          75          76          77          78
    1   1.9882923   1.9839980   1.9810180   1.9807793   1.0246189   1.0196980
           79          80          81          82          83          84
    1   0.0214866   0.0057533   0.0025965   0.0004368   0.0000649   0.0000495
           85          86          87
    1   0.0000416   0.0000404   0.0000181

  Amplitudes : 
  
 | HOLE  | ALPHA | BETA  | PART  |    AMPLITUDE 
--------------------------------------------------
 |       | 1110  | 0100  |       |     6.5634255274129E-01
 |       | 1110  | 0010  |       |    -5.3443373870206E-01
 |       | 0111  | 0100  |       |    -1.0150526957178E-01
 |  75   | 1111  | 0100  |       |    -1.0768848290595E-01
 |  72   | 1110  | 1100  |       |     1.1970916009098E-01
 |  75   | 1110  | 1100  |       |    -1.5141278422817E-01
 |  65   | 1110  | 0110  |       |    -1.3080153686645E-01
 |  66   | 1110  | 0110  |       |    -1.5734038750108E-01
 |  69   | 1110  | 0110  |       |     1.5390673626358E-01
 |  75   | 1110  | 0101  |       |    -1.0544986809978E-01
--------------------------------------------------
*** Contributions RASCI wfn    Active:  73.34
                                 Hole:  23.32
                                 Part:   3.33

      Mulliken population analysis 
 ---------------------------------------------------
   Atom    Charge (a.u.)   Spin (a.u.)  
 ---------------------------------------------------
   1  H    0.199040        0.000117 
   2  H    0.204327        0.002246 
   3  H    0.205138        0.000430 
   4  H    0.220686        0.002615 
   5  H    0.210911        0.000994 
   6  H    0.230145        0.003779 
   7  H    0.188810        0.000434 
   8  H    0.192136        0.000345 
   9  B    0.096294        0.087457 
  10  B    0.440477        0.394028 
  11  H    0.207288        0.000344 
  12  H    0.211622        0.000293 
  13  C   -0.175613        0.041656 
  14  C   -0.120818        0.006899 
  15  C   -0.244951       -0.002025 
  16  C   -0.411298        0.011435 
  17  C   -0.273989        0.001069 
  18  C    0.074258        0.054194 
  19  C    0.105132        0.054417 
  20  C   -0.178168        0.005482 
  21  C   -0.109937        0.075828 
  22  C   -0.074545        0.113645 
  23  C   -0.172374        0.020165 
  24  C   -0.180971        0.059786 
  25  C   -0.135182        0.032331 
  26  C   -0.228691        0.359678 
  27  C   -0.208508        0.039558 
  28  C    0.035064        0.011835 
  29  C    0.072238        0.050201 
  30  C   -0.137968        0.183776 
  31  C   -0.112169        0.234709 
  32  C   -0.191875        0.121632 
  33  C   -0.179169        0.025346 
  34  C   -0.155115        0.001096 
  35  H    0.197639        0.000829 
  36  H    0.200135        0.003375 
 ---------------------------------------------------
   Sum:    0.000000        2.000000 
 ---------------------------------------------------
 
  
 NATURAL OCCUPATION NUMBERS (higher than 1.0E-05)
            1           2           3           4           5           6
    1   2.0000000   2.0000000   2.0000000   2.0000000   2.0000000   2.0000000
            7           8           9          10          11          12
    1   2.0000000   2.0000000   2.0000000   2.0000000   2.0000000   2.0000000
           13          14          15          16          17          18
    1   2.0000000   2.0000000   2.0000000   2.0000000   2.0000000   2.0000000
           19          20          21          22          23          24
    1   2.0000000   2.0000000   2.0000000   2.0000000   2.0000000   2.0000000
           25          26          27          28          29          30
    1   2.0000000   2.0000000   2.0000000   2.0000000   2.0000000   2.0000000
           31          32          33          34          35          36
    1   2.0000000   2.0000000   2.0000000   2.0000000   2.0000000   2.0000000
           37          38          39          40          41          42
    1   2.0000000   2.0000000   2.0000000   2.0000000   2.0000000   2.0000000
           43          44          45          46          47          48
    1   2.0000000   2.0000000   2.0000000   2.0000000   2.0000000   2.0000000
           49          50          51          52          53          54
[...]
    95    1.279441449253e-10
    96    7.060488360696e-05
    97   -1.495373175285e-02
    98    8.091567969215e-02
    99   -1.073184591358e-02
   100   -1.095546998615e-09
   101    1.841629757593e-01
   102   -6.554127279917e-01
   103    7.595841982372e-02
   104    3.141766575603e-09
   105    1.500617040579e-03
   106    2.169762511420e-03
   107   -2.989290177374e-03
   108    1.875487655364e-02
   109    1.158411793442e-10
   110    7.223590238723e-11
   111    4.440438936013e-02
   112   -8.589431085260e-02
   113    1.002368610842e-01
   114    2.122501089915e-02
   115    7.477850098347e-09
   116   -1.528387289762e-01
   117    9.415203806557e-01
   118    4.437219636669e-01
   119    1.013525650171e-08
   120    3.576338859675e-03
   121    1.251905845825e-02
   122   -5.647755630946e-03
   123    1.720099838250e-03
   124   -1.015573100228e-10
   125    2.221947467989e-10
   126    1.000945208336e-02
   127   -5.328858606983e-02
   128    4.439307932536e-02
   129    3.169516922917e-02
   130    2.285222736165e-09
   131    2.807602645530e-01
   132   -9.889973694706e-02
   133    2.702535648884e-03
   134    8.065667610981e-11
   135   -2.730161701105e-03
   136    9.207835708086e-03
   137   -4.358601681127e-03
   138   -1.440493470466e-03
   139   -2.534754905671e-10
   140   -2.886586446824e-10
   141   -1.232736945466e-02
   142    3.483010037973e-02
   143    7.455446035694e-02
   144   -7.765226768013e-02
   145    1.257647682344e-09
   146    1.040905078825e-01
   147   -3.057581999191e-01
   148    4.156795996377e-01
   149    2.507863820839e-09
   150    1.445302220345e-02
   151   -1.301993405697e-02
   152    8.260200438850e-04
   153   -9.885271760231e-03
   154    2.631191979156e-10
   155   -6.451325995581e-10
   156    1.426426562378e-02
   157   -1.929152467379e-02
   158   -1.837830281737e-02
   159   -1.442129724275e-02
   160   -2.808378623026e-09
   161   -2.724118717675e-01
   162   -8.095939644363e-03
   163    5.971554548957e-02
   164   -2.750587247736e-09
   165    4.733751714784e-03
   166   -4.957137520904e-03
   167   -7.420644374380e-04
   168   -3.683961157477e-03
   169   -7.217907166033e-12
   170   -1.600314099002e-10
   171    1.339382770433e-02
   172    5.872279529327e-04
   173    2.080790154263e-02
   174   -1.964378165183e-02
   175    3.110900626048e-09
   176   -7.532965234885e-01
   177    8.171213070586e-02
   178    2.362409481185e-02
   179    3.584066991890e-09
   180    1.909763666081e-03
   181   -4.579248068699e-03
   182    3.000347254936e-03
   183    1.346925205544e-02
   184    2.226544556075e-10
   185    1.471568818870e-10
   186    3.315219723821e-03
   187   -1.382990488632e-02
   188    2.907968858871e-02
   189   -4.428485220737e-02
   190   -2.181261737146e-09
   191    1.259993708830e-02
   192    2.884189233049e-01
   193   -6.513808287774e-01
   194   -2.585303167480e-09
   195   -9.331411989543e-03
   196    7.094671840985e-03
   197   -3.329739421967e-03
   198    1.558411795472e-02
   199   -2.172862634497e-10
   200    1.069678711032e-10
   201   -3.692772182350e-02
   202    8.520280728685e-02
   203   -6.113983053733e-02
   204   -4.338764905935e-02
   205   -7.071476580382e-09
   206    4.435748524728e-02
   207   -7.563950959913e-01
   208   -3.846503477610e-01
   209   -1.065860177490e-08
   210   -8.763269722359e-03
   211   -2.438210516215e-03
   212    5.309047223745e-03
   213    9.533967641816e-04
   214    1.977551712676e-12
   215    9.679137797807e-11
   216    1.631638022669e-02
   217   -2.778253078309e-02
   218   -1.522056016922e-02
   219   -4.858686410473e-03
   220   -2.409430053271e-09
   221   -1.581642725024e-01
   222   -6.416870666049e-02
   223   -1.959648308117e-01
   224   -5.950353195963e-10
   225    8.861886144045e-03
   226   -7.313685709187e-03
   227   -1.377974332090e-03
   228    4.581187744308e-03
   229    1.436865057400e-10
   230    1.015986608334e-10
   231    1.507366664736e-02
   232   -1.760270627165e-02
   233    3.515237829720e-02
   234   -1.560227203668e-02
   235    1.986782089065e-09
   236   -4.122202463744e-01
   237    1.900618829608e-01
   238   -4.029516497620e-01
   239    3.057207759725e-09
   240    5.111524454719e-03
   241   -6.437077878953e-03
   242    2.572718088801e-03
   243   -1.124991854004e-02
   244    2.242045913653e-11
   245   -3.235328872517e-10
   246   -1.009555547810e-02
   247   -2.551026095498e-03
   248    1.382479589624e-02
   249   -4.479975139083e-02
   250    1.667103891884e-09
   251    7.198147412531e-01
   252   -5.728708505185e-02
   253   -3.907234527798e-01
   254    3.864936373701e-09
   255    1.243142784019e-02
   256   -8.679607287933e-03
   257   -1.167913918239e-03
   258   -1.155273374649e-02
   259   -1.405466993951e-10
   260    1.871787204207e-11
   261    2.419404379435e-02
   262   -6.058651914775e-02
   263    2.973829444207e-02
   264   -4.523174856205e-02
   265    2.351873012884e-09
   266    6.182331384045e-02
   267    6.339367636648e-01
   268   -3.007955082533e-01
   269    6.775595507775e-09
   270    4.788357376498e-03
   271    5.680901760915e-03
   272   -3.708706853604e-03
   273    6.551024681585e-03
   274   -2.224509556475e-11
   275    4.376749859548e-10
   276    5.297877378271e-03
   277   -4.690098156066e-02
   278    3.684838576959e-02
   279   -5.577419149940e-02
   280   -2.309941559228e-09
   281    3.873271959717e-01
   282   -1.504584694828e-01
   283    1.280684645920e-01
   284   -3.729624716461e-09
   285   -8.233469074429e-03
   286    1.344474293476e-02
   287   -3.748867442936e-03
   288    1.064401130045e-03
   289   -1.473899427785e-10
   290    5.719133914914e-11
   291   -1.632892913327e-02
   292    6.243979490961e-02
   293    4.807165048202e-03
   294   -5.009196272743e-02
   295    5.818437221671e-10
   296   -1.680233023942e-01
   297    1.161326270232e-01
   298    3.143852084928e-01
   299   -2.267736137604e-09
   300   -9.732079439962e-03
   301    1.169904460241e-03
   302    5.340791990776e-03
   303   -5.780121594617e-03
   304   -8.999090053255e-11
   305   -1.357408228416e-10
   306   -4.534158111663e-02
   307    7.806048209643e-02
   308    8.061449766569e-02
   309    2.574016052723e-02
   310    1.907353419923e-09
   311    4.443307373474e-01
   312    6.212994565816e-01
   313    5.337577882803e-01
   314    2.269345267631e-09
   315   -2.189475776489e-03
   316   -8.479727457214e-03
   317    3.553718687403e-03
   318    2.353623393745e-03
   319   -1.096317291110e-10
   320    2.207827915512e-10
   321   -6.418464196641e-03
   322    4.735641336472e-02
   323    4.297806237841e-02
   324   -9.782157425754e-03
   325   -1.709869923938e-09
   326   -4.536885283677e-01
   327   -2.642710440646e-01
   328    1.187945853626e-01
   329   -1.983952749728e-09
   330   -9.209736995815e-03
   331   -1.690302528747e-03
   332    7.267135954140e-03
   333   -1.054717853846e-02
   334    6.370794404058e-11
   335    2.058375480932e-10
   336   -6.009332421274e-03
   337    1.876531773191e-02
   338    1.690680399751e-02
   339    1.556327298041e-02
   340    6.995507807515e-10
   341   -4.844948602756e-02
   342   -3.269006300382e-02
   343    7.501919358837e-02
   344    1.223646454761e-09
   345   -1.627667098937e-03
   346   -2.206723926897e-04
   347    1.831352701262e-03
   348    5.843400813222e-03
   349    9.275854060688e-13
   350    9.093853011477e-11
   351    3.751510595374e-02
   352   -8.451674063081e-02
   353    1.176951243259e-02
   354   -4.409636595781e-02
   355    2.361522536931e-09
   356   -2.385019324259e-01
   357   -2.250390992581e-01
   358   -6.763155484870e-01
   359    2.319508234268e-09
   360    7.059003423004e-03
   361   -9.367020729301e-04
   362   -2.441793666158e-03
   363    2.419177610527e-03
   364    1.796735849726e-10
   365    1.195382598499e-11
   366   -7.400641220230e-03
   367    1.288195369515e-02
   368   -1.273367360989e-02
   369    1.885525277019e-03
   370    7.358913907723e-10
   371    4.604285052079e-03
   372    4.866865361047e-02
   373    6.045234819047e-02
   374    1.404571359307e-09
   375    5.109965840963e-03
   376   -7.385095840661e-03
   377    1.216390637432e-03
   378    4.755043750755e-03
   379   -1.208847256305e-10
   380    7.618009057926e-11
   381   -2.351926300452e-02
   382   -1.185558771292e-01
   383    1.242998295001e-02
   384    8.260612272010e-01
Sym=X
Ene= 0.337566
Spin=Alpha
Occup=0
     1   -3.465263756919e-02
     2   -9.655594249016e-01
     3   -1.515365209236e-02
     4   -1.432822235150e-01
     5    2.922993937206e-02
     6    1.189958381788e+00
     7    1.337038866141e-02
     8    6.841351698443e-01
     9   -1.337687748016e-02
    10   -9.565901489536e-01
    11   -3.931583880024e-02
    12   -8.428679261614e-01
    13    2.177883368297e-02
    14    9.623075476438e-02
    15    2.566352109020e-02
    16    1.223725218198e+00
    17   -3.647622493269e-03
    18    2.513389199743e-02
    19    4.793153855070e-02
    20    4.121484177415e-02
    21    6.753264181970e-09
    22    6.923154082072e-01
    23    3.629307457503e-01
    24   -1.918135865745e-01
    25    1.102388260613e-08
    26   -3.999339152199e-03
    27    1.639158282655e-02
    28    4.042553409374e-03
    29   -5.829792417381e-03
    30   -3.763862335207e-10
    31    1.038080416811e-10
    32    1.309448243516e-02
    33   -8.686572834149e-03
    34    5.538681730070e-02
    35    4.492054053682e-02
    36    3.093340558034e-09
    37   -1.051947828092e+00
    38    5.208908000238e-01
    39   -1.413331032905e-01
    40    7.429146209745e-09
    41   -6.939661960184e-05
    42   -1.827646540682e-02
    43   -4.729870354828e-03
    44    9.149738913882e-03
    45   -9.586022904930e-11
    46    4.784395276312e-10
    47    6.899379330181e-03
    48    5.463659526222e-01
    49   -1.488782102224e-02
    50   -1.504135315170e-03
    51    1.930584731984e-02
    52   -5.956365792454e-02
    53    3.185525302699e-02
    54    3.073773514222e-02
    55    2.117531986634e-09
    56    1.113202175864e-01
    57   -8.704348759970e-02
    58    5.592783029484e-01
    59    8.897382023097e-09
    60    8.416557609566e-03
    61   -2.710799560488e-03
    62   -2.140402072421e-03
    63   -7.013975379035e-04
    64   -3.691058056993e-10
    65   -4.299883406382e-10
    66   -2.467604508932e-04
    67   -2.038800176780e-03
    68   -1.499892882520e-02
    69    1.240398004693e-03
    70    4.292923893032e-09
    71   -7.313531754242e-02
    72    1.512128239168e-02
    73    9.206706899712e-03
    74    1.385587165906e-08
    75    3.591543861659e-03
    76   -5.815183826199e-03
    77    1.030651199841e-03
    78   -3.271272301902e-03
    79    6.465157355579e-10
    80   -5.484103864222e-10
    81   -3.741005259873e-02
    82    7.283911257432e-02
    83    6.620166650633e-02
    84   -2.706019592593e-02
    85   -9.238474880067e-09
    86    1.484292071646e-01
    87    6.843897339389e-01
    88   -3.667751860812e-01
    89   -1.187244066999e-08
    90   -3.815991718233e-03
    91   -8.365715694755e-03
    92    5.000592814518e-03
    93    5.353618371818e-03
    94   -7.751128156875e-11
    95   -3.905688725424e-10
    96   -6.356545215874e-03
    97    5.287887183444e-02
    98    2.861583378974e-02
    99    1.819741351921e-02
   100    7.039327993243e-10
   101   -4.714459392963e-01
   102   -2.544411583243e-01
   103   -1.755525140583e-01
   104   -6.924034003129e-09
   105   -9.502713398370e-03
   106   -3.027692923117e-03
   107    8.899667097401e-03
   108    8.264989899457e-03
   109   -1.725012557368e-10
   110   -6.970451571362e-11
   111   -9.184652688266e-03
   112    2.501002817370e-02
   113    6.471014944208e-03
   114   -9.077974532505e-03
   115   -1.310933575926e-08
   116   -7.427622703385e-02
   117   -8.953663482302e-02
   118   -1.165327544120e-01
   119   -1.899092650442e-08
   120   -2.036103434775e-03
   121   -1.713638310761e-03
   122    2.333837319793e-03
   123   -4.268010624035e-03
   124    1.794931005719e-10
   125   -2.426029054828e-10
   126    4.116449425703e-04
   127    6.018754079848e-03
   128    5.396331548954e-02
   129    8.087859667035e-02
   130   -6.250770974538e-09
   131   -1.857057537440e-01
   132   -2.521967914917e-01
   133   -4.640899949694e-01
   134   -4.407780615949e-09
   135   -1.534456927953e-02
   136    9.228323051797e-03
   137    2.126165365636e-03
   138   -9.502372544295e-03
   139    4.225648028396e-10
   140    4.609255560634e-10
   141   -1.129369038280e-02
   142    4.496128767347e-02
   143    3.331745017129e-03
   144    4.687210113717e-02
   145   -1.306803324790e-10
   146   -1.357320537060e-01
   147    1.593479325060e-01
   148   -3.699473213495e-01
   149   -4.465698154594e-10
   150   -1.003307368910e-02
   151    2.903658809797e-03
   152    4.227175334647e-03
   153    4.253416652979e-03
   154   -3.728240585244e-10
   155    1.078047973891e-09
   156    4.573246070782e-02
   157   -9.843968229838e-02
   158   -6.796741966470e-02
   159    5.066536345999e-02
   160    5.324150116224e-09
   161   -1.559820139626e-01
   162   -9.079144992703e-01
   163    4.240228469409e-01
   164    7.253410989110e-09
   165    9.287163732216e-03
   166    3.128239773734e-03
   167   -5.198510273146e-03
   168    3.212572130593e-03
   169    1.534147759460e-10
   170    3.008509094522e-10
   171   -2.260871583293e-03
   172   -3.491710464457e-03
   173    2.290263109510e-02
   174    4.981847843831e-02
   175   -4.548392299078e-09
   176    3.005444204487e-01
   177    3.217319961854e-01
   178    7.117295540444e-01
   179   -4.277985391178e-09
   180    1.186619310331e-02
   181   -7.332045718813e-03
   182    1.304202403440e-03
   183    7.574274721633e-03
   184   -5.394501688799e-10
   185   -2.371120460594e-10
   186   -1.040181535532e-02
   187   -3.455599589177e-03
   188    5.290980857011e-03
   189    5.577801695736e-02
   190    3.671383406925e-09
   191    8.023826407540e-01
   192   -9.763340298578e-02
   193    5.622902563927e-01
   194    2.767143801835e-09
   195    9.479909176326e-03
   196   -3.037746024549e-03
   197   -1.763207719044e-03
   198    7.163540862733e-03
   199    2.919642355149e-10
   200   -2.419791654120e-10
   201    1.668098947307e-02
   202   -4.876946858012e-02
   203    3.299294948343e-02
   204    5.764224838881e-02
   205    1.057438764347e-08
   206    2.345791618198e-01
   207    5.987846344476e-01
   208    3.639061339388e-01
   209    1.433709441185e-08
   210    4.914161638561e-03
   211    5.073320851569e-03
   212   -3.365707655816e-03
   213   -4.774869685078e-03
   214    1.133101787741e-10
   215   -1.648302951573e-10
   216   -3.344975714354e-02
   217    8.060509883545e-02
   218    4.578185238984e-02
   219    5.085973628246e-02
   220    3.707548472257e-09
   221   -1.320858445911e-02
   222    8.467005364445e-01
   223    3.253083349737e-01
   224   -8.370083715179e-10
   225   -5.522224589331e-03
   226   -6.844017903612e-03
   227    4.449651244305e-03
   228    6.727574455361e-03
   229   -2.949353679933e-10
   230   -2.032308209698e-10
   231    9.962492142050e-03
   232    1.210804283337e-02
   233   -2.726572242018e-03
   234    5.120558926040e-02
   235   -3.802964095645e-09
   236   -8.580428361850e-01
   237   -2.539314213085e-01
   238    5.035128465934e-01
   239   -6.320528108260e-09
   240   -1.043314641751e-02
   241    5.960066586758e-03
   242    7.915883656953e-04
   243   -6.898330579076e-03
   244    4.464057438226e-11
   245    5.030288375406e-10
   246   -6.737052323601e-03
   247    1.769288877356e-02
   248    3.683787972642e-02
   249    5.855462841206e-02
   250   -2.610636958183e-09
   251   -2.637467940093e-02
   252    3.585871322649e-01
   253    8.448870011866e-01
   254   -5.406514088488e-09
   255   -1.047392096357e-02
   256    1.061334939814e-02
   257   -4.182014144470e-03
   258   -1.005923522698e-02
   259    2.357437782052e-10
   260   -3.810221424653e-11
   261   -2.961341906035e-02
   262    7.461797282000e-02
   263   -4.005361813229e-02
   264    4.218138989950e-02
   265   -3.289453769625e-09
   266   -1.087001089008e-01
   267   -6.141481088158e-01
   268    4.641217609157e-01
   269   -8.953271544084e-09
   270   -1.279273497068e-02
   271    2.064622174855e-03
   272    5.058543511186e-03
   273    2.088480468874e-04
   274   -8.107060704316e-13
   275   -6.492254155939e-10
   276    1.071499667106e-02
   277   -5.990937294451e-02
   278   -1.108597131875e-02
   279    5.209175057430e-02
   280    4.941522119323e-09
   281    4.419849524551e-01
   282    1.073805373660e-01
   283   -4.297844653461e-01
   284    8.361360507780e-09
   285    1.258435820428e-02
   286   -3.700767266417e-04
   287   -6.234925900667e-03
   288   -7.627332734118e-03
   289    2.487702396628e-10
   290   -1.049365160912e-10
   291   -3.946692250456e-03
   292    3.076611766133e-02
   293    5.566756756851e-02
   294    9.553600651045e-02
   295   -1.644310595538e-09
   296   -1.608301847490e-01
   297   -3.125908186702e-01
   298   -4.778962133948e-01
   299    2.265242644623e-09
   300    1.752816859089e-02
   301   -1.653675569316e-02
   302    9.121717362855e-04
   303    5.662614868459e-03
   304    1.117310465696e-10
   305    2.200301969777e-10
   306    8.543783220833e-03
   307   -2.067086274617e-02
   308    1.474674967450e-02
   309   -1.252027078247e-02
   310   -3.741207391574e-09
   311    4.706522718219e-02
   312   -5.335322649621e-02
   313   -2.902311679869e-02
   314   -5.007626599810e-09
   315    1.407551458796e-03
   316    1.243499560239e-03
   317   -2.136190745424e-03
   318    8.759243986868e-03
   319    1.915432762945e-10
   320   -4.598582504007e-10
   321    7.508898968905e-04
   322   -4.994744402225e-02
   323    5.106430871753e-02
   324    7.760767631044e-03
   325    4.193163324377e-09
   326    6.791586959065e-01
   327   -3.677557047108e-01
   328   -2.242170538170e-01
   329    5.721990111439e-09
   330    1.084161385505e-02
   331    3.224078711791e-03
   332   -1.009021325976e-02
   333   -1.106216078918e-02
   334   -8.805476602526e-11
   335   -3.198568273929e-10
   336    5.115107775523e-02
   337   -9.781775012194e-02
   338    8.149904115750e-02
   339   -2.268297998470e-02
   340   -1.064444875534e-09
   341   -2.573957552199e-01
   342    8.054489259998e-01
   343   -6.215543239077e-01
   344   -8.445307018712e-10
   345    3.499928568118e-03
   346    1.332144968390e-02
   347   -6.410028471323e-03
   348    4.738714841480e-04
   349   -4.884310549922e-11
   350   -1.299124451047e-10
   351    1.201898253563e-02
   352   -1.678130433156e-02
   353   -2.133842610505e-02
   354   -1.136273514690e-02
   355   -4.061917387365e-09
   356   -5.223579406385e-02
   357    1.927465142083e-02
   358   -1.207665023796e-01
   359   -4.392105986795e-09
   360   -3.923693483375e-03
   361    8.157372944464e-03
   362   -1.669013502001e-03
   363    5.877661681089e-03
   364   -4.204555797871e-10
   365   -4.497363738554e-11
   366   -3.973084380997e-02
   367    9.851985127017e-02
   368    1.255957155432e-02
   369    6.427861244158e-02
   370   -1.690900294348e-09
   371    1.351478120862e-01
   372   -2.311807729569e-01
   373    8.919336378849e-01
   374   -3.994100326231e-09
   375   -9.045142221742e-03
   376    1.069872401638e-03
   377    3.122244259220e-03
   378    3.446992701270e-04
   379    2.628511238250e-10
   380   -1.731601845772e-10
   381   -1.417809747286e-02
   382   -1.012599198488e+00
   383    2.580949178277e-02
   384    2.206255227483e-01

======= END OF MOLDEN-FORMATTED INPUT FILE =======


        *************************************************************
        *                                                           *
        *  Thank you very much for using Q-Chem.  Have a nice day.  *
        *                                                           *
        *************************************************************


