                  Welcome to Q-Chem
     A Quantum Leap Into The Future Of Chemistry


 Q-Chem 6.0 (devel), Q-Chem, Inc., Pleasanton, CA (2022)

 E. Epifanovsky,  A. T. B. Gilbert,  Xintian Feng,  Joonho Lee,  Yuezhi Mao,  
 N. Mardirossian,  P. Pokhilko,  A. White,  M. Wormit,  M. P. Coons,  
 A. L. Dempwolff,  Zhengting Gan,  D. Hait,  P. R. Horn,  L. D. Jacobson,  
 I. Kaliman,  J. Kussmann,  A. W. Lange,  Ka Un Lao,  D. S. Levine,  Jie Liu,  
 S. C. McKenzie,  A. F. Morrison,  K. Nanda,  F. Plasser,  D. R. Rehn,  
 M. L. Vidal,  Zhi-Qiang You,  Ying Zhu,  B. Alam,  B. Albrecht,  
 A. Aldossary,  E. Alguire,  J. H. Andersen,  V. Athavale,  D. Barton,  
 K. Begam,  A. Behn,  N. Bellonzi,  Y. A. Bernard,  E. J. Berquist,  
 H. Burton,  A. Carreras,  K. Carter-Fenk,  Romit Chakraborty,  
 Chandrima Chakravarty,  Junhan Chen,  A. D. Chien,  K. D. Closser,  
 V. Cofer-Shabica,  L. Cunha,  S. Dasgupta,  Jia Deng,  M. de Wergifosse,  
 M. Diedenhofen,  Hainam Do,  S. Ehlert,  Po-Tung Fang,  S. Fatehi,  
 Qingguo Feng,  T. Friedhoff,  B. Ganoe,  J. Gayvert,  Qinghui Ge,  
 G. Gidofalvi,  M. Goldey,  J. Gomes,  C. Gonzalez-Espinoza,  S. Gulania,  
 A. Gunina,  J. A. Gyamfi,  M. W. D. Hanson-Heine,  P. H. P. Harbach,  
 A. W. Hauser,  M. F. Herbst,  M. Hernandez Vera,  M. Hodecker,  
 Z. C. Holden,  S. Houck,  Xunkun Huang,  Kerwin Hui,  B. C. Huynh,  
 K. Ikeda,  M. Ivanov,  Hyunjun Ji,  Zuxin Jin,  Hanjie Jiang,  B. Kaduk,  
 S. Kaehler,  R. Kang,  K. Khistyaev,  Jaehoon Kim,  Yongbin Kim,  
 P. Klunzinger,  Z. Koczor-Benda,  Joong Hoon Koh,  D. Kosenkov,  
 Saikiran Kotaru,  L. Koulias,  T. Kowalczyk,  C. M. Krauter,  K. Kue,  
 A. Kunitsa,  T. Kus,  A. Landau,  K. V. Lawler,  D. Lefrancois,  S. Lehtola,  
 Rain Li,  Shaozhi Li,  Yi-Pei Li,  Jiashu Liang,  M. Liebenthal,  
 Hung-Hsuan Lin,  You-Sheng Lin,  Fenglai Liu,  Kuan-Yu Liu,  
 M. Loipersberger,  A. Luenser,  C. Malbon,  A. Manjanath,  P. Manohar,  
 E. Mansoor,  S. F. Manzer,  Shan-Ping Mao,  A. V. Marenich,  T. Markovich,  
 S. Mason,  F. Matz,  S. A. Maurer,  P. F. McLaughlin,  M. F. S. J. Menger,  
 J.-M. Mewes,  S. A. Mewes,  P. Morgante,  Mohammad Mostafanejad,  
 J. W. Mullinax,  K. J. Oosterbaan,  G. Paran,  V. Parravicini,  
 Alexander C. Paul,  Suranjan K. Paul,  F. Pavosevic,  Zheng Pei,  S. Prager,  
 E. I. Proynov,  E. Ramos,  B. Rana,  A. E. Rask,  A. Rettig,  R. M. Richard,  
 F. Rob,  E. Rossomme,  T. Scheele,  M. Scheurer,  M. Schneider,  
 P. E. Schneider,  N. Sergueev,  S. M. Sharada,  Hengyuan Shen,  
 W. Skomorowski,  D. W. Small,  C. J. Stein,  Yingli Su,  Yu-Chuan Su,  
 E. J. Sundstrom,  Zhen Tao,  J. Thirman,  Hung-Yi Tsai,  T. Tsuchimochi,  
 N. M. Tubman,  C. Utku,  S. P. Veccham,  O. Vydrov,  J. Wenzel,  
 Jonathan Wong,  J. Witte,  A. Yamada,  Chou-Hsun Yang,  Kun Yao,  
 S. Yeganeh,  S. R. Yost,  A. Zech,  F. Zeller,  Igor Ying Zhang,  
 Xing Zhang,  Yu Zhang,  D. Zuev,  A. Aspuru-Guzik,  A. T. Bell,  
 N. A. Besley,  K. B. Bravaya,  B. R. Brooks,  D. Casanova,  Jeng-Da Chai,  
 Hsing-Ta Chen,  S. Coriani,  C. J. Cramer,  A. E. DePrince, III,  
 R. A. DiStasio Jr.,  A. Dreuw,  B. D. Dunietz,  T. R. Furlani,  
 W. A. Goddard III,  S. Grimme,  S. Hammes-Schiffer,  T. Head-Gordon,  
 W. J. Hehre,  Chao-Ping Hsu,  T.-C. Jagau,  Yousung Jung,  A. Klamt,  
 Jing Kong,  D. S. Lambrecht,  Xiangyuan Li,  WanZhen Liang,  N. J. Mayhall,  
 C. W. McCurdy,  J. B. Neaton,  T. Neudecker,  C. Ochsenfeld,  
 J. A. Parkhill,  R. Peverati,  V. A. Rassolov,  Haisheng Ren,  Yihan Shao,  
 L. V. Slipchenko,  R. P. Steele,  J. E. Subotnik,  A. J. W. Thom,  
 A. Tkatchenko,  D. G. Truhlar,  T. Van Voorhis,  Fan Wang,  
 T. A. Wesolowski,  K. B. Whaley,  H. L. Woodcock III,  P. M. Zimmerman,  
 S. Faraji,  P. M. W. Gill,  M. Head-Gordon,  J. M. Herbert,  A. I. Krylov

 Contributors to earlier versions of Q-Chem not listed above: 
 R. D. Adamson,  B. Austin,  R. Baer,  J. Baker,  G. J. O. Beran,  
 K. Brandhorst,  S. T. Brown,  E. F. C. Byrd,  Arup K. Chakraborty,  
 G. K. L. Chan,  Chun-Min Chang,  Yunqing Chen,  C.-L. Cheng,  
 Siu Hung Chien,  D. M. Chipman,  D. L. Crittenden,  H. Dachsel,  
 R. J. Doerksen,  A. D. Dutoi,  R. G. Edgar,  J. Fosso-Tande,  
 L. Fusti-Molnar,  D. Ghosh,  A. Ghysels,  A. Golubeva-Zadorozhnaya,  
 J. Gonthier,  M. S. Gordon,  S. R. Gwaltney,  G. Hawkins,  J. E. Herr,  
 A. Heyden,  S. Hirata,  E. G. Hohenstein,  G. Kedziora,  F. J. Keil,  
 C. Kelley,  Jihan Kim,  R. A. King,  R. Z. Khaliullin,  P. P. Korambath,  
 W. Kurlancheek,  A. Laurent,  A. M. Lee,  M. S. Lee,  S. V. Levchenko,  
 Ching Yeh Lin,  D. Liotard,  E. Livshits,  R. C. Lochan,  I. Lotan,  
 L. A. Martinez-Martinez,  P. E. Maslen,  N. Nair,  D. P. O'Neill,  
 D. Neuhauser,  E. Neuscamman,  C. M. Oana,  R. Olivares-Amaya,  R. Olson,  
 T. M. Perrine,  B. Peters,  P. A. Pieniazek,  A. Prociuk,  Y. M. Rhee,  
 J. Ritchie,  M. A. Rohrdanz,  E. Rosta,  N. J. Russ,  H. F. Schaefer III,  
 M. W. Schmidt,  N. E. Schultz,  S. Sharma,  N. Shenvi,  C. D. Sherrill,  
 A. C. Simmonett,  A. Sodt,  T. Stein,  D. Stuck,  K. S. Thanthiriwatte,  
 V. Vanovschi,  L. Vogt,  Tao Wang,  A. Warshel,  M. A. Watson,  
 C. F. Williams,  Q. Wu,  X. Xu,  Jun Yang,  W. Zhang,  Yan Zhao

   Please cite Q-Chem as follows:
  "Software for the frontiers of quantum chemistry:
   An overview of developments in the Q-Chem 5 package"
   J. Chem. Phys. 155, 084801 (2021)
   https://doi.org/10.1063/5.0055522 (open access)

 Q-Chem 6.0.1 for Intel X86 EM64T Linux

 Parts of Q-Chem use Armadillo 9.900.5 (Nocturnal Misbehaviour).
 http://arma.sourceforge.net/

 Q-Chem begins on Fri Sep  8 17:39:53 2023  

 Host: atlas-194
0

     Scratch files written to ./qchem211063//
 Processing $rem in /scratch/abel/SOFTWARE/qchem/config/preferences:
 Processing $rem in /dipc/acebg/.qchemrc:

 Checking the input file for inconsistencies... 	...done.

--------------------------------------------------------------
User input:
--------------------------------------------------------------
$comment
  RAS-SF CALCULATION
$end

$molecule
 READ C74H32B4_singlet.xyz
$end

$rem
!**CALCULATION TYPE***
JOBTYPE            sp
EXCHANGE           HF
CORRELATION        RASCI    !RASCI=Casanova; RASCI2=Zimmerman
BASIS              6-31G*

!***SCF REFERENCE***
!SKIP_SCFMAN        FALSE
UNRESTRICTED       FALSE
!SCF_GUESS_MIX      FALSE
!SCF_GUESS_ALWAYS   FALSE
MAX_SCF_CYCLES     999
SCF_CONVERGENCE    10
SCF_ALGORITHM      DIIS_GDM !DIIS,DM,DIIS_DM,GDM,DIIS_GDM,GD

!SYMMETRY           TRUE !use of symmetry for calculating integrals
!SYM_IGNORE         FALSE !turn off using symmetry
!SYM_TOL            5 !tolerance for determining point group
!USE_ABELIAN_SUBGROUP      !define to use abelian grou

!THRESH             14
SCF_FINAL_PRINT     1 !0,1,2,3

!****RAS-SF****
RAS_ROOTS          20       !number of RAS-CI roots to be computed
SET_ITER           100     !number of iterations in RASCI
RAS_ELEC           4       !number of electrons in RAS2
RAS_ELEC_ALPHA     3       !spin-α electrons in RAS2
RAS_ELEC_BETA      1       !spin-β electrons in RAS2

RAS_ACT            4       !number of orbitals in RAS2
RAS_ACT_ORB   [247,248,249,250] !user-selected RAS2 orbitals
RAS_OCC           246       !number of orbitals in RAS1
N_FROZEN_CORE      FC     !Number of frozen core orbitals
N_FROZEN_VIRTUAL   0      !Number of frozen virtual orbitals

RAS_DO_HOLE        TRUE   !presence of hole excitations in RAS-CI wave function
RAS_DO_PART        TRUE   !presence of particle excitations
!RAS_AMPL_PRINT     10     !threshold (×10 2 ) for the CI amplitudes

!RAS_GUESS_CS       0      !number of closed shell guess conﬁgurations
!RAS_SPIN_MULT      0      !spin multiplicity: 0=any, 2n+1=defined
!RAS_SRDFT          FALSE  !short-range density functional RAS-CI
!RAS_NFRAG          0     !fragments of excitation analysis in RASCI

RAS_PRINT           2      !level of information
RAS_NATORB          TRUE   !computation of the natural orbital occupancies
!RAS_NATORB_STATE  0      !Saves NO of i RAS computed state in .fchk ﬁle
!RAS_FOD            TRUE

!****RAS-SOC****
CALC_SOC           TRUE   !calculate SOC for EOM-CC, RAS-CI, ADC, TDDFT/TDA and TDDFT
!RAS_SOC_2E        TRUE   !two-electron mean-ﬁeld contribution, default=true
RAS_SOC_SYM_DENS   TRUE   !averaging of α and β densities

!****MEMORY****
MEM_TOTAL          12000 !Default 2000 MB
MEM_STATIC         3000  !Default 64 MB

!**Molecular Properties and Analysis **
!POP_MULLIKEN       TRUE   !Run Mulliken population analysis
!LOWDIN_POPULATION  TRUE   !Run Löwdin population analysis
!GUI                2       !Checkpoints generation
STATE_ANALYSIS     TRUE

!**Wave function analysis of RAS-CI states: MOLDEN**
!PLOTS = 0     ! Note: This can be omitted, default is 0
!NTO_PAIRS = 2 ! Note: This can be omitted, default is 2
GUI 2
!MOLDEN_FORMAT      TRUE
!PRINT_ORBITALS     15

!**Wave function analysis of RAS-CI state: CUBE**
!NTO_PAIRS = 2 ! Note: This can be omitted, default is 2
!PLOTS = 1
!GUI 0

!**SR-DFT**         
!RAS_SRDFT           TRUE !Perform short-range density functional RAS-CI               
!RAS_SRDFT_EXC       0 !EX functional. 0=HF.
!RAS_SRDFT_ONLY_COR  TRUE !No use of EXC functional 
!RAS_SRDFT_COR       srPBE !short-range correlation functional
!ras_srdft_0         TRUE !true: no iteration (one-shot); false: iteration             
!RAS_OMEGA           400 !Coulomb range-separation parameter. def=400                  
!RAS_SRDFT_DAMP     0.5 !dumping factor. def=0.5                                      
!GUI 0  
$end

!$plots
!   grid_points 100 100 100
!   grid_range  (-10,10) (-10,10) (-10,10)
!$end

!$occupied
!   1:77 78 79 80
!   1:77 80
!$end

--------------------------------------------------------------
 ----------------------------------------------------------------
             Standard Nuclear Orientation (Angstroms)
    I     Atom           X                Y                Z
 ----------------------------------------------------------------
    1      H      14.2296290000    -3.4058550000    -0.0000000000
    2      H      14.2296290000     3.4058550000     0.0000000000
    3      H      12.0207480000    -4.7252410000    -0.0000000000
    4      H      12.0207480000     4.7252410000     0.0000000000
    5      H       9.5784060000    -4.7277330000    -0.0000000000
    6      H       9.5784060000     4.7277330000     0.0000000000
    7      H       7.4175450000    -3.4207620000    -0.0000000000
    8      H       7.4175450000     3.4207620000     0.0000000000
    9      H       5.4945680000    -3.4033160000    -0.0000000000
   10      H       5.4945680000     3.4033160000     0.0000000000
   11      H       3.1087200000    -3.3944640000    -0.0000000000
   12      H       3.1087200000     3.3944640000     0.0000000000
   13      B      12.2510320000     0.0000000000    -0.0000000000
   14      B       9.3702590000     0.0000000000    -0.0000000000
   15      H      15.4870420000    -1.3513690000    -0.0000000000
   16      H      15.4870420000     1.3513690000     0.0000000000
   17      C      14.3985640000    -1.2730800000    -0.0000000000
   18      C      14.3985640000     1.2730800000     0.0000000000
   19      C      13.6703540000    -2.4721310000    -0.0000000000
   20      C      13.7725850000     0.0000000000    -0.0000000000
   21      C      13.6703540000     2.4721310000     0.0000000000
   22      C      12.2406890000    -2.5480480000    -0.0000000000
   23      C      12.2406890000     2.5480480000     0.0000000000
   24      C      11.4867420000    -3.7773720000    -0.0000000000
   25      C      11.5067290000    -1.3365880000    -0.0000000000
   26      C      11.5067290000     1.3365880000     0.0000000000
   27      C      11.4867420000     3.7773720000     0.0000000000
   28      C      10.1116360000    -3.7792010000    -0.0000000000
   29      C      10.1074000000    -1.3300180000    -0.0000000000
   30      C      10.1074000000     1.3300180000     0.0000000000
   31      C      10.1116360000     3.7792010000     0.0000000000
   32      C       9.3565230000    -2.5474190000    -0.0000000000
   33      C       9.3565230000     2.5474190000     0.0000000000
   34      C       7.9524850000    -2.4763390000    -0.0000000000
   35      C       7.8689840000     0.0000000000    -0.0000000000
   36      C       7.9524850000     2.4763390000     0.0000000000
   37      C       7.1934870000    -1.2527060000    -0.0000000000
   38      C       7.1934870000     1.2527060000     0.0000000000
   39      C       5.7515540000    -1.2492140000    -0.0000000000
   40      C       5.7515540000     1.2492140000     0.0000000000
   41      C       4.9878130000    -2.4471040000    -0.0000000000
   42      C       5.0392340000     0.0000000000    -0.0000000000
   43      C       4.9878130000     2.4471040000     0.0000000000
   44      C       3.6206980000    -2.4406560000    -0.0000000000
   45      C       3.5972760000     0.0000000000    -0.0000000000
   46      C       3.6206980000     2.4406560000     0.0000000000
   47      C       2.8733900000    -1.2319520000    -0.0000000000
   48      C       2.8733900000     1.2319520000     0.0000000000
   49      C      -2.8733900000    -1.2319520000    -0.0000000000
   50      C      -2.8733900000     1.2319520000     0.0000000000
   51      C      -3.5972760000    -0.0000000000     0.0000000000
   52      C      -3.6206980000    -2.4406560000    -0.0000000000
   53      C      -3.6206980000     2.4406560000     0.0000000000
   54      H      -3.1087200000    -3.3944640000    -0.0000000000
   55      C      -4.9878130000    -2.4471040000    -0.0000000000
   56      C      -5.0392340000    -0.0000000000     0.0000000000
   57      H      -3.1087200000     3.3944640000     0.0000000000
   58      C      -4.9878130000     2.4471040000     0.0000000000
   59      H      -5.4945680000    -3.4033160000    -0.0000000000
   60      C      -5.7515540000    -1.2492140000    -0.0000000000
   61      C      -5.7515540000     1.2492140000     0.0000000000
   62      H      -5.4945680000     3.4033160000     0.0000000000
   63      C      -7.1934870000    -1.2527060000    -0.0000000000
   64      C      -7.1934870000     1.2527060000     0.0000000000
   65      C      -7.9524850000    -2.4763390000    -0.0000000000
   66      C      -7.8689840000    -0.0000000000     0.0000000000
   67      C      -7.9524850000     2.4763390000     0.0000000000
   68      H      -7.4175450000    -3.4207620000    -0.0000000000
   69      C      -9.3565230000    -2.5474190000    -0.0000000000
   70      B      -9.3702590000    -0.0000000000     0.0000000000
   71      H      -7.4175450000     3.4207620000     0.0000000000
   72      C      -9.3565230000     2.5474190000     0.0000000000
   73      C     -10.1116360000    -3.7792010000    -0.0000000000
   74      C     -10.1074000000    -1.3300180000    -0.0000000000
   75      C     -10.1074000000     1.3300180000     0.0000000000
   76      C     -10.1116360000     3.7792010000     0.0000000000
   77      H      -9.5784060000    -4.7277330000    -0.0000000000
   78      C     -11.4867420000    -3.7773720000    -0.0000000000
   79      C     -11.5067290000    -1.3365880000    -0.0000000000
   80      C     -11.5067290000     1.3365880000     0.0000000000
   81      H      -9.5784060000     4.7277330000     0.0000000000
   82      C     -11.4867420000     3.7773720000     0.0000000000
   83      H     -12.0207480000    -4.7252410000    -0.0000000000
   84      C     -12.2406890000    -2.5480480000    -0.0000000000
   85      B     -12.2510320000    -0.0000000000     0.0000000000
   86      C     -12.2406890000     2.5480480000     0.0000000000
   87      H     -12.0207480000     4.7252410000     0.0000000000
   88      C     -13.6703540000    -2.4721310000    -0.0000000000
   89      C     -13.7725850000    -0.0000000000     0.0000000000
   90      C     -13.6703540000     2.4721310000     0.0000000000
   91      H     -14.2296290000    -3.4058550000    -0.0000000000
   92      C     -14.3985640000    -1.2730800000    -0.0000000000
   93      C     -14.3985640000     1.2730800000     0.0000000000
   94      H     -14.2296290000     3.4058550000     0.0000000000
   95      H     -15.4870420000    -1.3513690000    -0.0000000000
   96      H     -15.4870420000     1.3513690000     0.0000000000
   97      H       1.1896590000    -3.3949160000    -0.0000000000
   98      H       1.1896590000     3.3949160000     0.0000000000
   99      H      -1.1896590000    -3.3949160000    -0.0000000000
  100      H      -1.1896590000     3.3949160000     0.0000000000
  101      C       1.4394570000    -1.2323530000    -0.0000000000
  102      C       1.4394570000     1.2323530000     0.0000000000
  103      C       0.6832680000    -2.4384460000    -0.0000000000
  104      C       0.7200090000     0.0000000000    -0.0000000000
  105      C       0.6832680000     2.4384460000     0.0000000000
  106      C      -0.6832680000    -2.4384460000    -0.0000000000
  107      C      -0.7200090000    -0.0000000000     0.0000000000
  108      C      -0.6832680000     2.4384460000     0.0000000000
  109      C      -1.4394570000    -1.2323530000    -0.0000000000
  110      C      -1.4394570000     1.2323530000     0.0000000000
 ----------------------------------------------------------------
 Molecular Point Group                 D2h   NOp =  8
 Largest Abelian Subgroup              D2h   NOp =  8
 Nuclear Repulsion Energy =        9723.75545044 hartrees
 There are      248 alpha and      248 beta electrons
 Requested basis set is 6-31G(d)
 There are 376 shells and 1234 basis functions

 Total QAlloc Memory Limit  12000 MB
 Mega-Array Size      2933 MB
 MEM_STATIC part      3000 MB

 A cutoff of  1.0D-14 yielded  21177 shell pairs
 There are    253023 function pairs
 Smallest overlap matrix eigenvalue = 6.48E-05

 Scale SEOQF with 1.000000e-02/1.000000e-01/1.000000e+00

 Standard Electronic Orientation quadrupole field applied
 Nucleus-field energy     =     0.0000003153 hartrees
 Guess from superposition of atomic densities
 Warning:  Energy on first SCF cycle will be non-variational
 SAD guess density has 496.000001 electrons

 -----------------------------------------------------------------------
  General SCF calculation program by
  Eric Jon Sundstrom, Paul Horn, Yuezhi Mao, Dmitri Zuev, Alec White,
  David Stuck, Shaama M.S., Shane Yost, Joonho Lee, David Small,
  Daniel Levine, Susi Lehtola, Hugh Burton, Evgeny Epifanovsky,
  Bang C. Huynh
 -----------------------------------------------------------------------
 Hartree-Fock
 A restricted SCF calculation will be
 performed using DIIS, GDM
 SCF converges when RMS gradient is below 1.0e-10
 ---------------------------------------
  Cycle       Energy         DIIS error
 ---------------------------------------
    1   -2958.0042871472      2.48e-02  
    2   -2918.6814167883      1.80e-03  Done DIIS. Switching to GDM
 ---------------------------------------
  Cycle       Energy        RMS Gradient
 ---------------------------------------
    1   -2918.6814167883      1.53e-01   Descent step
    2   -2919.1941257332      6.24e-02   Descent step
    3   -2919.5126445391      2.56e-02   Descent step
    4   -2919.6730047813      2.18e-02   Normal BFGS step
    5   -2919.6966951414      7.70e-03   Normal BFGS step
    6   -2919.6977496886      6.97e-03   Normal BFGS step
    7   -2919.6986798857      2.87e-03   Normal BFGS step
    8   -2919.6987971647      3.52e-03   Normal BFGS step
    9   -2919.6988507322      1.16e-03   Normal BFGS step
   10   -2919.6988745284      7.71e-04   Normal BFGS step
   11   -2919.6988825175      2.87e-04   Normal BFGS step
   12   -2919.6988841916      1.32e-04   Normal BFGS step
   13   -2919.6988844485      3.72e-05   Normal BFGS step
   14   -2919.6988845236      2.37e-05   Normal BFGS step
   15   -2919.6988845404      9.25e-06   Normal BFGS step
   16   -2919.6988845439      5.74e-06   Normal BFGS step
   17   -2919.6988845447      1.84e-06   Normal BFGS step
   18   -2919.6988845449      7.20e-07   Normal BFGS step
   19   -2919.6988845449      3.49e-07   Normal BFGS step
   20   -2919.6988845449      1.42e-07   Normal BFGS step
   21   -2919.6988845449      8.12e-08   Normal BFGS step
   22   -2919.6988845449      3.05e-08   Normal BFGS step
   23   -2919.6988845449      8.11e-09   Normal BFGS step
  GDM::WARNING energy changes are now smaller than effective accuracy.
  GDM::        calculation will continue, but THRESH should be increased
  GDM::        or SCF_CONVERGENCE decreased. 
  GDM::        effective_thresh = 2.45e-08
   24   -2919.6988845449      4.16e-09   Normal BFGS step
  GDM::WARNING energy changes are now smaller than effective accuracy.
  GDM::        calculation will continue, but THRESH should be increased
  GDM::        or SCF_CONVERGENCE decreased. 
  GDM::        effective_thresh = 2.45e-08
   25   -2919.6988845449      2.60e-09   Normal BFGS step
  GDM::WARNING energy changes are now smaller than effective accuracy.
  GDM::        calculation will continue, but THRESH should be increased
  GDM::        or SCF_CONVERGENCE decreased. 
  GDM::        effective_thresh = 2.45e-08
   26   -2919.6988845449      8.70e-10   Normal BFGS step
   27   -2919.6988845449      1.22e-09   Normal BFGS step
   28   -2919.6988845449      1.63e-10   Normal BFGS step
  GDM::WARNING energy changes are now smaller than effective accuracy.
  GDM::        calculation will continue, but THRESH should be increased
  GDM::        or SCF_CONVERGENCE decreased. 
  GDM::        effective_thresh = 2.45e-08
   29   -2919.6988845449      8.33e-11  Convergence criterion met
 ---------------------------------------
 DFT Correlation    Energy =   0.00000000000000
 DFT Exchange       Energy =   0.00000000000000
 HF Exchange        Energy = -411.38167208778634
 Kinetic            Energy =   0.00000000000000
 Nuclear Attraction Energy =   0.00000000000000
 One-Electron       Energy = -23329.17724836551497
 Total Coulomb      Energy = 11097.10458515430764
 Final Alpha MO Eigenvalues
            1           2           3           4           5           6
    1 -11.2896207 -11.2896207 -11.2895933 -11.2895933 -11.2873676 -11.2873642
            7           8           9          10          11          12
    1 -11.2873008 -11.2872865 -11.2817211 -11.2817173 -11.2815570 -11.2806388
           13          14          15          16          17          18
    1 -11.2798338 -11.2798336 -11.2795712 -11.2795702 -11.2757650 -11.2757650
           19          20          21          22          23          24
    1 -11.2740642 -11.2740640 -11.2740635 -11.2740632 -11.2726609 -11.2726607
           25          26          27          28          29          30
    1 -11.2712747 -11.2712743 -11.2677758 -11.2677758 -11.2677753 -11.2677753
           31          32          33          34          35          36
    1 -11.2628913 -11.2628913 -11.2628911 -11.2628911 -11.2591770 -11.2591770
           37          38          39          40          41          42
    1 -11.2591767 -11.2591767 -11.2447150 -11.2447150 -11.2447134 -11.2447134
           43          44          45          46          47          48
    1 -11.2436446 -11.2436446 -11.2436445 -11.2436445 -11.2428620 -11.2428620
           49          50          51          52          53          54
    1 -11.2428617 -11.2428617 -11.2389900 -11.2389900 -11.2389880 -11.2389880
           55          56          57          58          59          60
    1 -11.2330349 -11.2330349 -11.2330349 -11.2330349 -11.2199511 -11.2199511
           61          62          63          64          65          66
    1 -11.2199506 -11.2199506 -11.2078826 -11.2078826 -11.2078739 -11.2078739
           67          68          69          70          71          72
    1 -11.1997358 -11.1997358 -11.1869918 -11.1869918 -11.1869815 -11.1869814
           73          74          75          76          77          78
    1 -11.1821317 -11.1821317  -7.5216978  -7.5216978  -7.5162428  -7.5162428
           79          80          81          82          83          84
    1  -1.2387260  -1.2223205  -1.2012246  -1.1712820  -1.1685104  -1.1574973
           85          86          87          88          89          90
    1  -1.1562276  -1.1481968  -1.1480905  -1.1439865  -1.1324952  -1.1322330
           91          92          93          94          95          96
    1  -1.1081311  -1.0984992  -1.0940052  -1.0903731  -1.0820190  -1.0681418
           97          98          99         100         101         102
    1  -1.0628519  -1.0532274  -1.0497121  -1.0479917  -1.0375820  -1.0316812
          103         104         105         106         107         108
    1  -1.0313565  -1.0161375  -1.0161019  -1.0112399  -1.0088829  -0.9948051
          109         110         111         112         113         114
    1  -0.9922822  -0.9826329  -0.9765586  -0.9639974  -0.9475948  -0.9475289
          115         116         117         118         119         120
    1  -0.9277112  -0.9163663  -0.9065656  -0.9042028  -0.8926214  -0.8873721
          121         122         123         124         125         126
    1  -0.8850114  -0.8717292  -0.8611314  -0.8478910  -0.8442060  -0.8432091
          127         128         129         130         131         132
    1  -0.8351933  -0.8206503  -0.8143667  -0.8143401  -0.8120543  -0.8041899
          133         134         135         136         137         138
    1  -0.7953342  -0.7895578  -0.7822172  -0.7797858  -0.7628626  -0.7600904
          139         140         141         142         143         144
    1  -0.7518131  -0.7394495  -0.7343569  -0.7318494  -0.7271438  -0.7181340
          145         146         147         148         149         150
    1  -0.7146544  -0.7145850  -0.7077422  -0.7016967  -0.6944449  -0.6906289
          151         152         153         154         155         156
    1  -0.6876317  -0.6746220  -0.6732769  -0.6728012  -0.6669605  -0.6585013
          157         158         159         160         161         162
    1  -0.6520478  -0.6430101  -0.6396230  -0.6383680  -0.6317246  -0.6296685
          163         164         165         166         167         168
    1  -0.6293121  -0.6273993  -0.6224755  -0.6197709  -0.6123611  -0.6105448
          169         170         171         172         173         174
    1  -0.6100161  -0.6036497  -0.6010050  -0.5997413  -0.5971894  -0.5949257
          175         176         177         178         179         180
    1  -0.5900530  -0.5892029  -0.5873153  -0.5848821  -0.5810965  -0.5760261
          181         182         183         184         185         186
    1  -0.5705858  -0.5679457  -0.5676765  -0.5645334  -0.5590282  -0.5572841
          187         188         189         190         191         192
    1  -0.5554013  -0.5519939  -0.5502577  -0.5499426  -0.5492853  -0.5430881
          193         194         195         196         197         198
    1  -0.5385265  -0.5366705  -0.5317921  -0.5294418  -0.5271093  -0.5266017
          199         200         201         202         203         204
    1  -0.5224674  -0.5175193  -0.5171348  -0.5136156  -0.5045093  -0.5006222
          205         206         207         208         209         210
    1  -0.5004768  -0.5004647  -0.5001429  -0.4946460  -0.4924020  -0.4917846
          211         212         213         214         215         216
    1  -0.4891434  -0.4886132  -0.4781549  -0.4769865  -0.4672747  -0.4663115
          217         218         219         220         221         222
    1  -0.4660685  -0.4516117  -0.4352462  -0.4326101  -0.4300613  -0.4300400
          223         224         225         226         227         228
    1  -0.4227752  -0.4119808  -0.4019674  -0.4019550  -0.3920126  -0.3920029
          229         230         231         232         233         234
    1  -0.3868048  -0.3811640  -0.3714135  -0.3666864  -0.3622910  -0.3622374
          235         236         237         238         239         240
    1  -0.3607747  -0.3546487  -0.3398546  -0.3374890  -0.3194593  -0.3184049
          241         242         243         244         245         246
    1  -0.3058195  -0.2961333  -0.2844133  -0.2522900  -0.2294448  -0.2291774
          247         248         249         250         251         252
    1  -0.2231493  -0.1327265  -0.1048239  -0.0565380  -0.0273333   0.0232102
          253         254         255         256         257         258
    1   0.0552762   0.0677075   0.0889562   0.1010295   0.1019383   0.1020154
          259         260         261         262         263         264
    1   0.1126619   0.1149276   0.1289917   0.1387149   0.1598030   0.1633272
          265         266         267         268         269         270
    1   0.1644358   0.1727471   0.1751950   0.1804946   0.1876206   0.2045905
          271         272         273         274         275         276
    1   0.2089063   0.2163802   0.2168221   0.2287068   0.2313085   0.2315605
          277         278         279         280         281         282
    1   0.2379074   0.2410230   0.2437631   0.2509665   0.2559569   0.2591520
          283         284         285         286         287         288
    1   0.2604971   0.2631365   0.2674497   0.2700194   0.2759455   0.2779877
          289         290         291         292         293         294
    1   0.2814894   0.2857470   0.2883908   0.2914212   0.2967132   0.2968547
          295         296         297         298         299         300
    1   0.3032030   0.3035877   0.3129773   0.3131690   0.3170975   0.3213386
          301         302         303         304         305         306
    1   0.3218603   0.3281357   0.3300370   0.3406486   0.3465846   0.3561585
          307         308         309         310         311         312
    1   0.3605450   0.3615323   0.3616171   0.3632684   0.3649565   0.3649631
          313         314         315         316         317         318
    1   0.3731272   0.3750635   0.3802077   0.3805925   0.3845468   0.3854057
          319         320         321         322         323         324
    1   0.3861226   0.3896980   0.3985698   0.4017957   0.4029005   0.4066422
          325         326         327         328         329         330
    1   0.4070665   0.4076056   0.4076990   0.4088900   0.4128624   0.4138990
          331         332         333         334         335         336
    1   0.4190389   0.4190871   0.4236222   0.4279488   0.4363453   0.4371776
          337         338         339         340         341         342
    1   0.4448753   0.4477766   0.4484170   0.4486249   0.4529417   0.4571130
          343         344         345         346         347         348
    1   0.4596830   0.4631776   0.4652998   0.4681685   0.4715972   0.4793613
          349         350         351         352         353         354
    1   0.4839310   0.4879306   0.4887895   0.4902142   0.4912318   0.4919011
          355         356         357         358         359         360
    1   0.4950157   0.4963064   0.5038224   0.5046526   0.5100630   0.5112456
          361         362         363         364         365         366
    1   0.5132037   0.5215622   0.5235480   0.5236467   0.5237998   0.5287665
          367         368         369         370         371         372
    1   0.5317111   0.5323624   0.5327652   0.5361752   0.5418892   0.5431104
          373         374         375         376         377         378
    1   0.5476420   0.5486793   0.5511618   0.5667569   0.5728997   0.5732945
          379         380         381         382         383         384
    1   0.5922546   0.5932792   0.6005960   0.6026138   0.6078905   0.6109616
          385         386         387         388         389         390
    1   0.6161287   0.6227355   0.6319670   0.6373030   0.6467954   0.6551434
          391         392         393         394         395         396
    1   0.6553242   0.6559458   0.6588554   0.6616874   0.6714048   0.6737565
          397         398         399         400         401         402
    1   0.6795712   0.6806010   0.6819651   0.6821564   0.6835957   0.6920764
          403         404         405         406         407         408
    1   0.6944962   0.6972792   0.6991391   0.7043386   0.7061630   0.7072488
          409         410         411         412         413         414
    1   0.7146014   0.7146182   0.7168382   0.7168745   0.7186762   0.7199214
          415         416         417         418         419         420
    1   0.7213987   0.7240040   0.7251251   0.7276267   0.7307260   0.7310128
          421         422         423         424         425         426
    1   0.7332243   0.7377673   0.7378779   0.7424027   0.7438840   0.7504068
          427         428         429         430         431         432
    1   0.7526643   0.7534832   0.7540275   0.7541319   0.7551101   0.7599418
          433         434         435         436         437         438
    1   0.7632881   0.7665062   0.7701917   0.7706381   0.7710860   0.7714185
          439         440         441         442         443         444
    1   0.7726744   0.7735421   0.7747532   0.7771120   0.7777488   0.7804146
          445         446         447         448         449         450
    1   0.7807386   0.7824374   0.7860866   0.7880992   0.7893565   0.7899833
          451         452         453         454         455         456
    1   0.7930485   0.7942919   0.7947744   0.7965344   0.7965639   0.7981029
          457         458         459         460         461         462
    1   0.7992220   0.8000491   0.8032104   0.8048211   0.8057651   0.8059858
          463         464         465         466         467         468
    1   0.8093673   0.8115046   0.8115099   0.8119092   0.8124005   0.8135047
          469         470         471         472         473         474
    1   0.8161121   0.8169346   0.8182483   0.8182657   0.8233192   0.8246216
          475         476         477         478         479         480
    1   0.8254036   0.8258639   0.8279417   0.8280345   0.8298915   0.8314358
          481         482         483         484         485         486
    1   0.8323985   0.8345422   0.8389919   0.8395235   0.8446943   0.8455538
          487         488         489         490         491         492
    1   0.8459553   0.8476961   0.8533519   0.8560337   0.8595569   0.8606048
          493         494         495         496         497         498
    1   0.8608222   0.8631341   0.8745051   0.8786177   0.8791194   0.8824072
          499         500         501         502         503         504
    1   0.8853963   0.8869427   0.8870831   0.8884770   0.8901963   0.8984995
          505         506         507         508         509         510
    1   0.9047449   0.9098544   0.9120373   0.9204626   0.9223911   0.9240313
          511         512         513         514         515         516
    1   0.9335332   0.9336700   0.9340435   0.9361368   0.9376881   0.9384753
          517         518         519         520         521         522
    1   0.9481427   0.9520695   0.9566414   0.9601197   0.9603432   0.9612673
          523         524         525         526         527         528
    1   0.9636849   0.9637866   0.9818245   0.9843516   0.9857355   0.9907061
          529         530         531         532         533         534
    1   0.9988527   1.0059893   1.0074699   1.0078218   1.0185865   1.0187820
          535         536         537         538         539         540
    1   1.0230534   1.0233239   1.0233412   1.0234350   1.0326758   1.0336361
          541         542         543         544         545         546
    1   1.0354975   1.0375879   1.0389175   1.0414395   1.0480773   1.0484598
          547         548         549         550         551         552
    1   1.0503201   1.0632811   1.0647368   1.0687341   1.0692274   1.0698019
          553         554         555         556         557         558
    1   1.0739276   1.0745042   1.0803600   1.0822044   1.0828833   1.0846877
          559         560         561         562         563         564
    1   1.0872288   1.0874148   1.0882099   1.0975875   1.1046545   1.1049569
          565         566         567         568         569         570
    1   1.1103053   1.1103666   1.1117199   1.1118299   1.1144733   1.1180409
          571         572         573         574         575         576
    1   1.1184614   1.1231055   1.1231060   1.1244759   1.1282155   1.1310212
          577         578         579         580         581         582
    1   1.1339846   1.1343231   1.1364024   1.1388138   1.1398953   1.1422142
          583         584         585         586         587         588
    1   1.1422864   1.1431234   1.1433642   1.1497405   1.1522741   1.1532659
          589         590         591         592         593         594
    1   1.1600132   1.1615247   1.1639105   1.1642881   1.1674481   1.1702748
          595         596         597         598         599         600
    1   1.1704593   1.1782867   1.1784168   1.1848228   1.1850732   1.1876286
          601         602         603         604         605         606
    1   1.1892756   1.1893866   1.1919680   1.1994936   1.2076711   1.2086066
          607         608         609         610         611         612
    1   1.2113264   1.2120734   1.2121789   1.2137575   1.2152747   1.2158572
          613         614         615         616         617         618
    1   1.2172900   1.2176174   1.2215852   1.2267635   1.2315210   1.2317319
          619         620         621         622         623         624
    1   1.2331591   1.2337533   1.2348570   1.2378015   1.2427461   1.2480515
          625         626         627         628         629         630
    1   1.2486735   1.2605802   1.2618168   1.2641263   1.2751830   1.2768927
          631         632         633         634         635         636
    1   1.2896379   1.2896600   1.2909475   1.2952501   1.2953016   1.2967595
          637         638         639         640         641         642
    1   1.2984438   1.3020238   1.3090627   1.3123018   1.3205204   1.3247806
          643         644         645         646         647         648
    1   1.3253314   1.3351656   1.3545524   1.3560570   1.3599459   1.3600900
          649         650         651         652         653         654
    1   1.3627051   1.3647393   1.3713950   1.3718168   1.3787752   1.3813590
          655         656         657         658         659         660
    1   1.3825407   1.3849830   1.3952710   1.3995350   1.4005696   1.4010253
          661         662         663         664         665         666
    1   1.4056949   1.4075032   1.4109497   1.4113172   1.4204869   1.4253345
          667         668         669         670         671         672
    1   1.4260348   1.4301623   1.4307160   1.4327074   1.4331692   1.4368861
          673         674         675         676         677         678
    1   1.4393279   1.4525485   1.4526383   1.4584345   1.4603466   1.4686105
          679         680         681         682         683         684
    1   1.4740764   1.4765379   1.4826649   1.4845129   1.4845730   1.4918703
          685         686         687         688         689         690
    1   1.4934847   1.4944416   1.4948163   1.4995035   1.4998630   1.5022828
          691         692         693         694         695         696
    1   1.5108747   1.5109868   1.5124674   1.5146339   1.5162283   1.5211324
          697         698         699         700         701         702
    1   1.5231985   1.5232285   1.5238539   1.5293697   1.5302015   1.5312102
          703         704         705         706         707         708
    1   1.5359533   1.5399453   1.5413792   1.5443286   1.5460960   1.5503351
          709         710         711         712         713         714
    1   1.5575481   1.5576284   1.5669459   1.5704912   1.5720593   1.5722167
          715         716         717         718         719         720
    1   1.5747502   1.5823752   1.5880936   1.5935638   1.5995881   1.5995915
          721         722         723         724         725         726
    1   1.6073318   1.6160684   1.6176998   1.6302770   1.6308902   1.6316365
          727         728         729         730         731         732
    1   1.6390740   1.6401067   1.6402867   1.6531036   1.6547699   1.6595498
          733         734         735         736         737         738
    1   1.6622486   1.6646798   1.6646813   1.6718652   1.6727450   1.6727457
          739         740         741         742         743         744
    1   1.6897081   1.6934490   1.7018671   1.7028355   1.7042273   1.7101587
          745         746         747         748         749         750
    1   1.7135621   1.7142382   1.7151183   1.7167330   1.7176199   1.7188421
          751         752         753         754         755         756
    1   1.7232508   1.7244685   1.7311595   1.7345020   1.7349491   1.7424381
          757         758         759         760         761         762
    1   1.7498903   1.7520657   1.7520669   1.7543719   1.7543723   1.7551642
          763         764         765         766         767         768
    1   1.7617428   1.7634407   1.7634408   1.7688992   1.7731084   1.7731098
          769         770         771         772         773         774
    1   1.7751936   1.7819691   1.7831165   1.7897714   1.7954176   1.7954606
          775         776         777         778         779         780
    1   1.7988168   1.8066539   1.8098207   1.8109225   1.8191787   1.8205317
          781         782         783         784         785         786
    1   1.8227411   1.8312577   1.8325575   1.8393747   1.8428916   1.8484499
          787         788         789         790         791         792
    1   1.8532849   1.8586904   1.8592993   1.8594832   1.8778026   1.8835179
          793         794         795         796         797         798
    1   1.8960666   1.9003026   1.9058749   1.9331110   1.9369548   1.9424616
          799         800         801         802         803         804
    1   1.9476658   1.9476720   1.9494070   1.9497348   1.9587612   1.9595869
          805         806         807         808         809         810
    1   1.9657352   1.9693471   1.9705692   1.9761606   1.9762723   1.9789260
          811         812         813         814         815         816
    1   1.9848822   1.9874715   1.9896867   1.9999154   2.0044885   2.0093358
          817         818         819         820         821         822
    1   2.0144481   2.0176267   2.0200847   2.0217718   2.0230732   2.0304759
          823         824         825         826         827         828
    1   2.0318522   2.0391924   2.0505884   2.0526590   2.0534896   2.0551310
          829         830         831         832         833         834
    1   2.0563094   2.0611875   2.0656873   2.0658978   2.0721960   2.0753343
          835         836         837         838         839         840
    1   2.0771241   2.0836330   2.0848252   2.0860728   2.0869116   2.0996226
          841         842         843         844         845         846
    1   2.0999198   2.1041617   2.1074255   2.1086073   2.1133462   2.1164061
          847         848         849         850         851         852
    1   2.1164256   2.1191331   2.1242660   2.1259334   2.1284811   2.1321117
          853         854         855         856         857         858
    1   2.1334214   2.1400038   2.1401053   2.1429454   2.1456909   2.1576671
          859         860         861         862         863         864
    1   2.1606488   2.1648971   2.1752476   2.1782663   2.1872158   2.1905386
          865         866         867         868         869         870
    1   2.1921309   2.1988636   2.2015152   2.2021748   2.2045307   2.2045761
          871         872         873         874         875         876
    1   2.2065041   2.2081554   2.2117057   2.2204278   2.2224682   2.2242123
          877         878         879         880         881         882
    1   2.2260573   2.2265878   2.2350989   2.2407199   2.2423555   2.2453870
          883         884         885         886         887         888
    1   2.2532786   2.2534065   2.2550150   2.2564226   2.2612869   2.2668465
          889         890         891         892         893         894
    1   2.2778715   2.2841925   2.2876868   2.2889510   2.2921026   2.2933528
          895         896         897         898         899         900
    1   2.2955087   2.2975350   2.2993799   2.3016496   2.3070541   2.3109616
          901         902         903         904         905         906
    1   2.3125883   2.3149621   2.3176758   2.3193094   2.3201067   2.3210146
          907         908         909         910         911         912
    1   2.3222251   2.3226513   2.3250665   2.3259771   2.3379181   2.3384996
          913         914         915         916         917         918
    1   2.3511027   2.3533091   2.3560594   2.3617239   2.3694454   2.3761642
          919         920         921         922         923         924
    1   2.3904467   2.3919724   2.3929318   2.3954615   2.4001797   2.4024596
          925         926         927         928         929         930
    1   2.4063396   2.4118106   2.4118253   2.4162495   2.4162523   2.4162963
          931         932         933         934         935         936
    1   2.4163746   2.4190377   2.4266494   2.4268363   2.4351653   2.4397322
          937         938         939         940         941         942
    1   2.4498079   2.4500340   2.4534876   2.4657880   2.4778703   2.4779692
          943         944         945         946         947         948
    1   2.4807433   2.4850377   2.5035157   2.5044660   2.5115915   2.5131811
          949         950         951         952         953         954
    1   2.5218993   2.5219842   2.5238106   2.5240547   2.5246086   2.5302396
          955         956         957         958         959         960
    1   2.5367687   2.5369873   2.5386880   2.5429621   2.5463551   2.5469386
          961         962         963         964         965         966
    1   2.5475696   2.5525846   2.5582936   2.5601016   2.5624017   2.5628346
          967         968         969         970         971         972
    1   2.5628682   2.5702351   2.5704590   2.5758329   2.5818212   2.5840299
          973         974         975         976         977         978
    1   2.5913867   2.5940508   2.6004930   2.6015525   2.6016828   2.6059605
          979         980         981         982         983         984
    1   2.6060618   2.6116002   2.6155904   2.6162344   2.6220935   2.6233720
          985         986         987         988         989         990
    1   2.6275889   2.6288975   2.6342742   2.6356765   2.6396027   2.6410183
          991         992         993         994         995         996
    1   2.6411424   2.6516017   2.6568069   2.6573350   2.6677759   2.6677864
          997         998         999        1000        1001        1002
    1   2.6708780   2.6737742   2.6777902   2.6852221   2.6979005   2.6979686
         1003        1004        1005        1006        1007        1008
    1   2.6997061   2.7007272   2.7110687   2.7145900   2.7147834   2.7164221
         1009        1010        1011        1012        1013        1014
    1   2.7170754   2.7191316   2.7202609   2.7229831   2.7254452   2.7336596
         1015        1016        1017        1018        1019        1020
    1   2.7396352   2.7537626   2.7567495   2.7694357   2.7721531   2.7745927
         1021        1022        1023        1024        1025        1026
    1   2.7798097   2.7903128   2.8114814   2.8158370   2.8161352   2.8193653
         1027        1028        1029        1030        1031        1032
    1   2.8352989   2.8358031   2.8371235   2.8381441   2.8391410   2.8553159
         1033        1034        1035        1036        1037        1038
    1   2.8617788   2.8722956   2.8733582   2.8758409   2.8908016   2.8924091
         1039        1040        1041        1042        1043        1044
    1   2.8935222   2.8986368   2.9070522   2.9079991   2.9340871   2.9439379
         1045        1046        1047        1048        1049        1050
    1   2.9452412   2.9503836   2.9524990   2.9621735   2.9649842   2.9692885
         1051        1052        1053        1054        1055        1056
    1   2.9755861   2.9765251   2.9830603   2.9869722   2.9882358   2.9884409
         1057        1058        1059        1060        1061        1062
    1   2.9927029   2.9939465   2.9969353   3.0002140   3.0126871   3.0164497
         1063        1064        1065        1066        1067        1068
    1   3.0183349   3.0254787   3.0275576   3.0401469   3.0481706   3.0639714
         1069        1070        1071        1072        1073        1074
    1   3.0672699   3.0727917   3.0808810   3.0835871   3.0897020   3.0959771
         1075        1076        1077        1078        1079        1080
    1   3.0963392   3.1051559   3.1172099   3.1202078   3.1252359   3.1257254
         1081        1082        1083        1084        1085        1086
    1   3.1335790   3.1342100   3.1412409   3.1415669   3.1449435   3.1481742
         1087        1088        1089        1090        1091        1092
    1   3.1551138   3.1596134   3.1634498   3.1762328   3.1808843   3.1831942
         1093        1094        1095        1096        1097        1098
    1   3.1889143   3.1937664   3.1955763   3.1979963   3.1999568   3.2000441
         1099        1100        1101        1102        1103        1104
    1   3.2142307   3.2178771   3.2223320   3.2413450   3.2485903   3.2495465
         1105        1106        1107        1108        1109        1110
    1   3.2584082   3.2612771   3.2717822   3.2721557   3.2741393   3.2786675
         1111        1112        1113        1114        1115        1116
    1   3.2831056   3.2852069   3.2956668   3.3138409   3.3332989   3.3448513
         1117        1118        1119        1120        1121        1122
    1   3.3460875   3.3493868   3.3629554   3.3743055   3.3842393   3.3993056
         1123        1124        1125        1126        1127        1128
    1   3.4003350   3.4330529   3.4330875   3.4417258   3.4799226   3.4834840
         1129        1130        1131        1132        1133        1134
    1   3.4935514   3.5035790   3.5084013   3.5254425   3.5339645   3.5414886
         1135        1136        1137        1138        1139        1140
    1   3.5436875   3.5570992   3.5885748   3.5974860   3.6411983   3.6594496
         1141        1142        1143        1144        1145        1146
    1   3.6688188   3.6704532   3.6761739   3.6859709   3.7344012   3.7676137
         1147        1148        1149        1150        1151        1152
    1   3.7742234   3.7943543   3.8314746   3.8661322   3.8714491   3.9212791
         1153        1154        1155        1156        1157        1158
    1   3.9255244   3.9570975   3.9792494   3.9931012   4.2169953   4.2172721
         1159        1160        1161        1162        1163        1164
    1   4.3397090   4.3402605   4.4632332   4.4696667   4.4799202   4.4843570
         1165        1166        1167        1168        1169        1170
    1   4.4897956   4.4995932   4.5117994   4.5177363   4.5180193   4.5209833
         1171        1172        1173        1174        1175        1176
    1   4.5248341   4.5250530   4.5292155   4.5302132   4.5381517   4.5396577
         1177        1178        1179        1180        1181        1182
    1   4.5476484   4.5488929   4.5525466   4.5568860   4.5662823   4.5673744
         1183        1184        1185        1186        1187        1188
    1   4.5709923   4.5740132   4.5773107   4.5911263   4.5922934   4.5988904
         1189        1190        1191        1192        1193        1194
    1   4.6207832   4.6299864   4.6397963   4.6434775   4.6653539   4.6657545
         1195        1196        1197        1198        1199        1200
    1   4.6738881   4.7011464   4.7195527   4.7224030   4.7267852   4.7271305
         1201        1202        1203        1204        1205        1206
    1   4.7350318   4.7424667   4.7433823   4.7523807   4.7543444   4.7797789
         1207        1208        1209        1210        1211        1212
    1   4.7924973   4.8328358   4.8564184   4.8625966   4.8989024   4.9035653
         1213        1214        1215        1216        1217        1218
    1   4.9042407   4.9310491   4.9529763   4.9637841   4.9830951   4.9836251
         1219        1220        1221        1222        1223        1224
    1   4.9887128   4.9888098   4.9998077   5.0322805   5.0549795   5.0590914
         1225        1226        1227        1228        1229        1230
    1   5.1473295   5.1515963   5.1664122   5.2521159   5.2572444   5.2572743
         1231        1232        1233        1234
    1   5.3217722   5.3707617   5.4051284   5.4361069
 SCF time:   CPU 1753.58s  wall 1765.00s 
 SCF   energy in the final basis set =    -2919.6988845449
 Total energy in the final basis set =    -2919.6988845449

 Q-Chem warning in module 0, line  204:

 Quadrupole field failed to resolve orbital degeneracies.


 Q-Chem warning in module 0, line  204:

 Quadrupole field failed to resolve orbital degeneracies.

  
     ##========================================##
     ||                                        ||
     ||              R A S M A N 2             ||
     ||________________________________________||
     ||                                        ||
     ||  Author:                               ||
     ||                                        ||
     ||        David Casanova (2010)           ||
     ||                                        ||
     ##========================================##
  
Setting single-point xc-functionals (if necessary)

  ***************************************************
  *  RAS-CI Dimensions:                             *
  *                                                 *
  *  Active Elec.:   4 ( 3, 1)   Active Orb.:   4   *
  *  Doubly Occ. : 246           Doubly Vir.: 984   *
  *  Frozen Occ. :  78           Frozen Vir.:   0   *
  *                                                 *
  *  Total CI configurations:     32272             * 
  *    Active configurations:        16             * 
  *      Hole configurations:      4704             * 
  *  Particle configurations:     27552             * 
  *                                                 *
  *   Requested states:       20                    *
  *  Spin multiplicity: Any multiplicity            *
  *                                                 *
  ***************************************************
-----------------------------------------
    Memory requirements of RASCI

 Each CI-vector requires      0.25 MiB 
 Max. subspace vectors           2000      

 Reduced Lists                0.00 MiB 
 Excitation Lists             0.00 MiB 
 Excitation Lists Sign        0.00 MiB 
 CI-space (Max)             527.89 MiB 
 Integrals                  281.85 MiB 
 Memory required (Max)      527.89 MiB 
 Memory available          2861.02 MiB 

    Disk requirements of RASCI

 Fock matrix                 23.24 MiB 
 2-electron integrals       528.05 MiB 
 CI-space                   984.86 MiB 
 Disk required             1536.15 MiB 
-----------------------------------------
  
RAS1 HF-like energy:          -2918.4991134597
 Computing integrals
 Computing J and K matrices
 Computing addressing
 Making amplitude guesses
 
Direct CI diagonalization
 ---------------------------------------------------
 Iter    Rts Conv    Rts Left    Ttl Dev     Max Dev
 ---------------------------------------------------
   1         0          20      0.007370    0.000686
   2         0          20      0.004297    0.000342
   3         0          20      0.003388    0.000288
   4         0          20      0.002441    0.000237
   5         0          20      0.002705    0.000494
   6         0          20      0.002408    0.000500
   7         0          20      0.001764    0.000414
   8         0          20      0.001237    0.000353
   9         1          19      0.000814    0.000224
  10         3          17      0.001053    0.000576
  11         4          16      0.000624    0.000272
  12         5          15      0.000390    0.000163
  13         7          13      0.000210    0.000084
  14        11           9      0.000562    0.000431
  15        13           7      0.000415    0.000331
  16        13           7      0.000289    0.000229
  17        15           5      0.000172    0.000136
  18        16           4      0.000099    0.000076
  19        17           3      0.000055    0.000039
  20        17           3      0.000033    0.000021
  21        17           3      0.000022    0.000012
  22        19           1      0.000015    0.000006
  23        19           1      0.000012    0.000004
  24        19           1      0.000010    0.000002
  25        19           1      0.000009    0.000001
  26        20           0      0.000009    0.000001    Roots Converged
 ---------------------------------------------------
   
**************************************************
 RAS-CI total energy for state   1:  -2919.784310693038
  Excitation energy (eV) =  0.000000000000
  State symmetry: B3u   (D2h      )
  <S^2>      :  2.0000
  Dipole Moment:   -0.0000 X    -0.0000 Y     0.0000 Z
 NATURAL OCCUPATION NUMBERS (higher than 1.0E-05)
            1           2           3           4           5           6
    1   2.0000000   2.0000000   2.0000000   2.0000000   2.0000000   2.0000000
            7           8           9          10          11          12
    1   2.0000000   2.0000000   2.0000000   2.0000000   2.0000000   2.0000000
           13          14          15          16          17          18
    1   2.0000000   2.0000000   2.0000000   2.0000000   2.0000000   2.0000000
           19          20          21          22          23          24
    1   2.0000000   2.0000000   2.0000000   2.0000000   2.0000000   2.0000000
           25          26          27          28          29          30
    1   2.0000000   2.0000000   2.0000000   2.0000000   2.0000000   2.0000000
           31          32          33          34          35          36
    1   2.0000000   2.0000000   2.0000000   2.0000000   2.0000000   2.0000000
           37          38          39          40          41          42
    1   2.0000000   2.0000000   2.0000000   2.0000000   2.0000000   2.0000000
           43          44          45          46          47          48
    1   2.0000000   2.0000000   2.0000000   2.0000000   2.0000000   2.0000000
           49          50          51          52          53          54
    1   2.0000000   2.0000000   2.0000000   2.0000000   2.0000000   2.0000000
           55          56          57          58          59          60
    1   2.0000000   2.0000000   2.0000000   2.0000000   2.0000000   2.0000000
           61          62          63          64          65          66
    1   2.0000000   2.0000000   2.0000000   2.0000000   2.0000000   2.0000000
           67          68          69          70          71          72
    1   2.0000000   2.0000000   2.0000000   2.0000000   2.0000000   2.0000000
           73          74          75          76          77          78
    1   2.0000000   2.0000000   2.0000000   2.0000000   2.0000000   2.0000000
           79          80          81          82          83          84
    1   2.0000000   2.0000000   2.0000000   2.0000000   2.0000000   2.0000000
           85          86          87          88          89          90
    1   2.0000000   2.0000000   2.0000000   2.0000000   2.0000000   2.0000000
           91          92          93          94          95          96
    1   2.0000000   2.0000000   2.0000000   2.0000000   2.0000000   2.0000000
           97          98          99         100         101         102
    1   2.0000000   2.0000000   2.0000000   2.0000000   2.0000000   2.0000000
          103         104         105         106         107         108
    1   2.0000000   2.0000000   2.0000000   2.0000000   2.0000000   2.0000000
          109         110         111         112         113         114
    1   2.0000000   2.0000000   2.0000000   2.0000000   2.0000000   2.0000000
          115         116         117         118         119         120
    1   2.0000000   2.0000000   2.0000000   2.0000000   2.0000000   2.0000000
          121         122         123         124         125         126
    1   2.0000000   2.0000000   2.0000000   2.0000000   2.0000000   2.0000000
          127         128         129         130         131         132
    1   2.0000000   2.0000000   2.0000000   2.0000000   2.0000000   2.0000000
          133         134         135         136         137         138
    1   2.0000000   2.0000000   2.0000000   2.0000000   2.0000000   2.0000000
          139         140         141         142         143         144
    1   2.0000000   2.0000000   2.0000000   2.0000000   2.0000000   2.0000000
          145         146         147         148         149         150
    1   2.0000000   2.0000000   2.0000000   2.0000000   2.0000000   2.0000000
          151         152         153         154         155         156
    1   2.0000000   2.0000000   2.0000000   2.0000000   2.0000000   2.0000000
          157         158         159         160         161         162
    1   2.0000000   2.0000000   2.0000000   2.0000000   2.0000000   2.0000000
          163         164         165         166         167         168
    1   2.0000000   2.0000000   2.0000000   2.0000000   2.0000000   2.0000000
          169         170         171         172         173         174
    1   2.0000000   2.0000000   2.0000000   2.0000000   2.0000000   2.0000000
          175         176         177         178         179         180
    1   2.0000000   2.0000000   2.0000000   2.0000000   2.0000000   2.0000000
          181         182         183         184         185         186
    1   2.0000000   2.0000000   2.0000000   2.0000000   2.0000000   2.0000000
          187         188         189         190         191         192
    1   2.0000000   2.0000000   2.0000000   2.0000000   2.0000000   2.0000000
          193         194         195         196         197         198
    1   2.0000000   2.0000000   2.0000000   2.0000000   2.0000000   2.0000000
          199         200         201         202         203         204
    1   2.0000000   2.0000000   2.0000000   2.0000000   2.0000000   2.0000000
          205         206         207         208         209         210
    1   2.0000000   2.0000000   2.0000000   2.0000000   2.0000000   2.0000000
          211         212         213         214         215         216
    1   2.0000000   2.0000000   2.0000000   2.0000000   2.0000000   2.0000000
          217         218         219         220         221         222
    1   2.0000000   2.0000000   2.0000000   2.0000000   2.0000000   2.0000000
          223         224         225         226         227         228
    1   2.0000000   2.0000000   2.0000000   2.0000000   2.0000000   2.0000000
          229         230         231         232         233         234
    1   2.0000000   2.0000000   1.9999997   1.9999997   1.9999997   1.9999995
          235         236         237         238         239         240
    1   1.9999986   1.9999973   1.9999968   1.9999744   1.9999729   1.9998956
          241         242         243         244         245         246
    1   1.9998661   1.9996722   1.9996504   1.9989680   1.9985542   1.9941966
          247         248         249         250         251         252
    1   1.9756494   1.0005786   0.9999089   0.0247605   0.0061646   0.0006986
          253         254         255         256         257         258
    1   0.0006389   0.0004451   0.0002654   0.0000561   0.0000527   0.0000135
          259
    1   0.0000131
Natural Orbitals stored in FCHK

  Amplitudes : 
  
 | HOLE  | ALPHA | BETA  | PART  |    AMPLITUDE 
--------------------------------------------------
 |       | 1110  | 1000  |       |     9.7746348310820E-01
--------------------------------------------------
*** Contributions RASCI wfn    Active:  96.32
                                 Hole:   1.60
                                 Part:   2.08

      Mulliken population analysis 
 ---------------------------------------------------
   Atom    Charge (a.u.)   Spin (a.u.)  
 ---------------------------------------------------
   1  H    0.187994       -0.000000 
   2  H    0.187994       -0.000000 
   3  H    0.203250       -0.000000 
   4  H    0.203250       -0.000000 
   5  H    0.201168       -0.000000 
   6  H    0.201168       -0.000000 
   7  H    0.216216       -0.000000 
   8  H    0.216216       -0.000000 
   9  H    0.230277       -0.000000 
  10  H    0.230277       -0.000000 
  11  H    0.231670       -0.000000 
  12  H    0.231670       -0.000000 
  13  B    0.304277        0.144744 
  14  B    0.227393        0.181203 
  15  H    0.191904       -0.000000 
  16  H    0.191904       -0.000000 
  17  C   -0.137517        0.015992 
  18  C   -0.137517        0.015992 
  19  C   -0.285221        0.053414 
  20  C   -0.175320        0.046972 
  21  C   -0.285221        0.053414 
  22  C    0.069820        0.012447 
  23  C    0.069820        0.012447 
  24  C   -0.211694        0.001594 
  25  C   -0.160718        0.062489 
  26  C   -0.160718        0.062489 
  27  C   -0.211694        0.001594 
  28  C   -0.175396        0.002829 
  29  C   -0.085423        0.059370 
  30  C   -0.085423        0.059370 
  31  C   -0.175396        0.002829 
  32  C   -0.002759        0.011623 
  33  C   -0.002759        0.011623 
  34  C   -0.221164        0.055334 
  35  C   -0.054213        0.051539 
  36  C   -0.221164        0.055334 
  37  C   -0.042518        0.024663 
  38  C   -0.042518        0.024663 
  39  C    0.078108       -0.006092 
  40  C    0.078108       -0.006092 
  41  C   -0.215740        0.002465 
  42  C   -0.094975        0.009432 
  43  C   -0.215740        0.002465 
  44  C   -0.180256       -0.005459 
  45  C   -0.028602        0.000332 
  46  C   -0.180256       -0.005459 
  47  C   -0.009696        0.001137 
  48  C   -0.009696        0.001137 
  49  C   -0.009696        0.001137 
  50  C   -0.009696        0.001137 
  51  C   -0.028602        0.000332 
  52  C   -0.180256       -0.005459 
  53  C   -0.180256       -0.005459 
  54  H    0.231670       -0.000000 
  55  C   -0.215740        0.002465 
  56  C   -0.094975        0.009432 
  57  H    0.231670       -0.000000 
  58  C   -0.215740        0.002465 
  59  H    0.230277       -0.000000 
  60  C    0.078108       -0.006092 
  61  C    0.078108       -0.006092 
  62  H    0.230277       -0.000000 
  63  C   -0.042518        0.024663 
  64  C   -0.042518        0.024663 
  65  C   -0.221164        0.055334 
  66  C   -0.054213        0.051539 
  67  C   -0.221164        0.055334 
  68  H    0.216216       -0.000000 
  69  C   -0.002759        0.011623 
  70  B    0.227393        0.181203 
  71  H    0.216216       -0.000000 
  72  C   -0.002759        0.011623 
  73  C   -0.175396        0.002829 
  74  C   -0.085423        0.059370 
  75  C   -0.085423        0.059370 
  76  C   -0.175396        0.002829 
  77  H    0.201168       -0.000000 
  78  C   -0.211694        0.001594 
  79  C   -0.160718        0.062489 
  80  C   -0.160718        0.062489 
  81  H    0.201168       -0.000000 
  82  C   -0.211694        0.001594 
  83  H    0.203250       -0.000000 
  84  C    0.069820        0.012447 
  85  B    0.304277        0.144744 
  86  C    0.069820        0.012447 
  87  H    0.203250       -0.000000 
  88  C   -0.285221        0.053414 
  89  C   -0.175320        0.046972 
  90  C   -0.285221        0.053414 
  91  H    0.187994       -0.000000 
  92  C   -0.137517        0.015992 
  93  C   -0.137517        0.015992 
  94  H    0.187994       -0.000000 
  95  H    0.191904       -0.000000 
  96  H    0.191904       -0.000000 
  97  H    0.230190       -0.000000 
  98  H    0.230190       -0.000000 
  99  H    0.230190       -0.000000 
 100  H    0.230190       -0.000000 
 101  C    0.023972       -0.006109 
 102  C    0.023972       -0.006109 
 103  C   -0.196840       -0.003164 
 104  C   -0.057813        0.000711 
 105  C   -0.196840       -0.003164 
 106  C   -0.196840       -0.003164 
 107  C   -0.057813        0.000711 
 108  C   -0.196840       -0.003164 
 109  C    0.023972       -0.006109 
 110  C    0.023972       -0.006109 
 ---------------------------------------------------
   Sum:    0.000000        2.000000 
 ---------------------------------------------------
 
  
 NATURAL OCCUPATION NUMBERS (higher than 1.0E-05)
            1           2           3           4           5           6
    1   2.0000000   2.0000000   2.0000000   2.0000000   2.0000000   2.0000000
            7           8           9          10          11          12
    1   2.0000000   2.0000000   2.0000000   2.0000000   2.0000000   2.0000000
           13          14          15          16          17          18
    1   2.0000000   2.0000000   2.0000000   2.0000000   2.0000000   2.0000000
           19          20          21          22          23          24
    1   2.0000000   2.0000000   2.0000000   2.0000000   2.0000000   2.0000000
           25          26          27          28          29          30
    1   2.0000000   2.0000000   2.0000000   2.0000000   2.0000000   2.0000000
           31          32          33          34          35          36
    1   2.0000000   2.0000000   2.0000000   2.0000000   2.0000000   2.0000000
           37          38          39          40          41          42
    1   2.0000000   2.0000000   2.0000000   2.0000000   2.0000000   2.0000000
           43          44          45          46          47          48
    1   2.0000000   2.0000000   2.0000000   2.0000000   2.0000000   2.0000000
           49          50          51          52          53          54
    1   2.0000000   2.0000000   2.0000000   2.0000000   2.0000000   2.0000000
           55          56          57          58          59          60
    1   2.0000000   2.0000000   2.0000000   2.0000000   2.0000000   2.0000000
           61          62          63          64          65          66
    1   2.0000000   2.0000000   2.0000000   2.0000000   2.0000000   2.0000000
           67          68          69          70          71          72
    1   2.0000000   2.0000000   2.0000000   2.0000000   2.0000000   2.0000000
           73          74          75          76          77          78
    1   2.0000000   2.0000000   2.0000000   2.0000000   2.0000000   2.0000000
           79          80          81          82          83          84
    1   2.0000000   2.0000000   2.0000000   2.0000000   2.0000000   2.0000000
           85          86          87          88          89          90
    1   2.0000000   2.0000000   2.0000000   2.0000000   2.0000000   2.0000000
           91          92          93          94          95          96
    1   2.0000000   2.0000000   2.0000000   2.0000000   2.0000000   2.0000000
           97          98          99         100         101         102
    1   2.0000000   2.0000000   2.0000000   2.0000000   2.0000000   2.0000000
          103         104         105         106         107         108
    1   2.0000000   2.0000000   2.0000000   2.0000000   2.0000000   2.0000000
          109         110         111         112         113         114
    1   2.0000000   2.0000000   2.0000000   2.0000000   2.0000000   2.0000000
          115         116         117         118         119         120
    1   2.0000000   2.0000000   2.0000000   2.0000000   2.0000000   2.0000000
          121         122         123         124         125         126
    1   2.0000000   2.0000000   2.0000000   2.0000000   2.0000000   2.0000000
          127         128         129         130         131         132
    1   2.0000000   2.0000000   2.0000000   2.0000000   2.0000000   2.0000000
          133         134         135         136         137         138
    1   2.0000000   2.0000000   2.0000000   2.0000000   2.0000000   2.0000000
          139         140         141         142         143         144
    1   2.0000000   2.0000000   2.0000000   2.0000000   2.0000000   2.0000000
          145         146         147         148         149         150
    1   2.0000000   2.0000000   2.0000000   2.0000000   2.0000000   2.0000000
          151         152         153         154         155         156
    1   2.0000000   2.0000000   2.0000000   2.0000000   2.0000000   2.0000000
          157         158         159         160         161         162
    1   2.0000000   2.0000000   2.0000000   2.0000000   2.0000000   2.0000000
          163         164         165         166         167         168
    1   2.0000000   2.0000000   2.0000000   2.0000000   2.0000000   2.0000000
          169         170         171         172         173         174
    1   2.0000000   2.0000000   2.0000000   2.0000000   2.0000000   2.0000000
          175         176         177         178         179         180
    1   2.0000000   2.0000000   2.0000000   2.0000000   2.0000000   2.0000000
          181         182         183         184         185         186
    1   2.0000000   2.0000000   2.0000000   2.0000000   2.0000000   2.0000000
          187         188         189         190         191         192
    1   2.0000000   2.0000000   2.0000000   2.0000000   2.0000000   2.0000000
          193         194         195         196         197         198
    1   2.0000000   2.0000000   2.0000000   2.0000000   2.0000000   2.0000000
          199         200         201         202         203         204
    1   2.0000000   2.0000000   2.0000000   2.0000000   2.0000000   2.0000000
          205         206         207         208         209         210
    1   2.0000000   2.0000000   2.0000000   2.0000000   2.0000000   2.0000000
          211         212         213         214         215         216
    1   2.0000000   2.0000000   2.0000000   2.0000000   2.0000000   2.0000000
          217         218         219         220         221         222
    1   2.0000000   2.0000000   2.0000000   2.0000000   2.0000000   2.0000000
          223         224         225         226         227         228
    1   2.0000000   2.0000000   2.0000000   2.0000000   2.0000000   2.0000000
          229         230         231         232         233         234
    1   2.0000000   2.0000000   1.9999997   1.9999997   1.9999997   1.9999995
          235         236         237         238         239         240
    1   1.9999986   1.9999973   1.9999968   1.9999744   1.9999729   1.9998956
          241         242         243         244         245         246
    1   1.9998661   1.9996722   1.9996504   1.9989680   1.9985542   1.9941966
          247         248         249         250         251         252
    1   1.9756494   1.0005786   0.9999089   0.0247605   0.0061646   0.0006986
          253         254         255         256         257         258
    1   0.0006389   0.0004451   0.0002654   0.0000561   0.0000527   0.0000135
          259
    1   0.0000131
  
*** Unpaired Electrons
 Yamaguchi Nd:         2.13
 Head-Gordon Nu:       2.07
 Head-Gordon Nu_nl:    2.01
  
**************************************************
 RAS-CI total energy for state   2:  -2919.744646558003
  Excitation energy (eV) =  1.079316028187
  State symmetry: B1g   (D2h      )
  <S^2>      :  2.0000
  Dipole Moment:   -0.0000 X     0.0000 Y     0.0000 Z
  Trans. Moment:    0.0000 X     1.2516 Y    -0.0000 Z
  Strength   :  0.041425
  Natural transition orbitals ( 1 -> 2 ):
   e-/hole pair  1 alpha:  ampl =  0.792774 ( 62.8%)   [4 : 5]
   e-/hole pair  2 alpha:  ampl =  0.489464 ( 24.0%)   [3 : 6]
   e-/hole pair  1 beta :  ampl =  0.164636 (  2.7%)   [4 : 5]
   e-/hole pair  2 beta :  ampl =  0.098411 (  1.0%)   [3 : 6]
   Sum of square amplitudes: 0.92

 NATURAL OCCUPATION NUMBERS (higher than 1.0E-05)
            1           2           3           4           5           6
    1   2.0000000   2.0000000   2.0000000   2.0000000   2.0000000   2.0000000
            7           8           9          10          11          12
    1   2.0000000   2.0000000   2.0000000   2.0000000   2.0000000   2.0000000
           13          14          15          16          17          18
    1   2.0000000   2.0000000   2.0000000   2.0000000   2.0000000   2.0000000
           19          20          21          22          23          24
    1   2.0000000   2.0000000   2.0000000   2.0000000   2.0000000   2.0000000
           25          26          27          28          29          30
    1   2.0000000   2.0000000   2.0000000   2.0000000   2.0000000   2.0000000
           31          32          33          34          35          36
    1   2.0000000   2.0000000   2.0000000   2.0000000   2.0000000   2.0000000
           37          38          39          40          41          42
    1   2.0000000   2.0000000   2.0000000   2.0000000   2.0000000   2.0000000
           43          44          45          46          47          48
    1   2.0000000   2.0000000   2.0000000   2.0000000   2.0000000   2.0000000
           49          50          51          52          53          54
    1   2.0000000   2.0000000   2.0000000   2.0000000   2.0000000   2.0000000
           55          56          57          58          59          60
    1   2.0000000   2.0000000   2.0000000   2.0000000   2.0000000   2.0000000
           61          62          63          64          65          66
    1   2.0000000   2.0000000   2.0000000   2.0000000   2.0000000   2.0000000
           67          68          69          70          71          72
    1   2.0000000   2.0000000   2.0000000   2.0000000   2.0000000   2.0000000
           73          74          75          76          77          78
    1   2.0000000   2.0000000   2.0000000   2.0000000   2.0000000   2.0000000
           79          80          81          82          83          84
    1   2.0000000   2.0000000   2.0000000   2.0000000   2.0000000   2.0000000
           85          86          87          88          89          90
    1   2.0000000   2.0000000   2.0000000   2.0000000   2.0000000   2.0000000
           91          92          93          94          95          96
    1   2.0000000   2.0000000   2.0000000   2.0000000   2.0000000   2.0000000
           97          98          99         100         101         102
    1   2.0000000   2.0000000   2.0000000   2.0000000   2.0000000   2.0000000
          103         104         105         106         107         108
    1   2.0000000   2.0000000   2.0000000   2.0000000   2.0000000   2.0000000
          109         110         111         112         113         114
    1   2.0000000   2.0000000   2.0000000   2.0000000   2.0000000   2.0000000
          115         116         117         118         119         120
    1   2.0000000   2.0000000   2.0000000   2.0000000   2.0000000   2.0000000
          121         122         123         124         125         126
    1   2.0000000   2.0000000   2.0000000   2.0000000   2.0000000   2.0000000
          127         128         129         130         131         132
[...]
   14  -0.0000026  -0.0000026  -0.0000005  -0.0000005   0.0005912   0.0005912
   15  -0.0000000   0.0000000   0.0000000   0.0000000  -0.0000000  -0.0000000
   16   0.0000000  -0.0000000   0.0000000   0.0000000  -0.0000000  -0.0000000
   17  -0.0000000   0.0000000  -0.0000000   0.0000000   0.0012376   0.0006023
   18   0.0000000  -0.0000000   0.0000000  -0.0000000   0.0006023   0.0012376
   19   0.0000000  -0.0000000  -0.0000000  -0.0000000   0.0005057   0.0000134
   20  -0.0000000  -0.0000000   0.0000000   0.0000000   0.0001040   0.0001040
   21  -0.0000000   0.0000000  -0.0000000  -0.0000000   0.0000134   0.0005057
   22  -0.0000001  -0.0000000   0.0000000   0.0000000   0.0014424   0.0008009
   23  -0.0000000  -0.0000001   0.0000000   0.0000000   0.0008009   0.0014424
   24   0.0000004   0.0000000  -0.0000001  -0.0000000   0.0005631   0.0003630
   25   0.0000002   0.0000001   0.0000000  -0.0000000   0.0004536   0.0000090
   26   0.0000001   0.0000002  -0.0000000   0.0000000   0.0000090   0.0004536
   27   0.0000000   0.0000004  -0.0000000  -0.0000001   0.0003630   0.0005631
   28  -0.0000007   0.0000002   0.0000001   0.0000000   0.0006935   0.0004497
   29  -0.0000012  -0.0000002   0.0000003   0.0000001   0.0016663   0.0003496
   30  -0.0000002  -0.0000012   0.0000001   0.0000003   0.0003496   0.0016663
   31   0.0000002  -0.0000007   0.0000000   0.0000001   0.0004497   0.0006935
   32   0.0000128   0.0000007  -0.0000015   0.0000001   0.0021001   0.0011101
   33   0.0000007   0.0000128   0.0000001  -0.0000015   0.0011101   0.0021001
   34  -0.0000099  -0.0000006   0.0000021   0.0000003   0.0031080   0.0009273
   35  -0.0000011  -0.0000011   0.0000009   0.0000009  -0.0002229  -0.0002229
   36  -0.0000006  -0.0000099   0.0000003   0.0000021   0.0009273   0.0031080
   37   0.0000279  -0.0000227  -0.0000032   0.0000001   0.0099088   0.0052872
   38  -0.0000227   0.0000279   0.0000001  -0.0000032   0.0052872   0.0099088
   39   0.0001047  -0.0000045   0.0000076   0.0000096  -0.0004873   0.0005835
   40  -0.0000045   0.0001047   0.0000096   0.0000076   0.0005835  -0.0004873
   41   0.0001093   0.0000082  -0.0000447  -0.0000026   0.0303427   0.0160988
   42  -0.0000647  -0.0000647   0.0000159   0.0000159   0.0076891   0.0076891
   43   0.0000082   0.0001093  -0.0000026  -0.0000447   0.0160988   0.0303427
   44   0.0056326   0.0000032   0.0001317   0.0000008  -0.0088340   0.0005366
   45  -0.0002748  -0.0002748  -0.0000475  -0.0000475   0.0054740   0.0054740
   46   0.0000032   0.0056326   0.0000008   0.0001317   0.0005366  -0.0088340
   47  -0.0016480   0.0001694   0.0009886   0.0000196   1.3155228   0.0429566
   48   0.0001694  -0.0016480   0.0000196   0.0009886   0.0429566   1.3155228
   49   0.0009886   0.0000196  -0.0016480   0.0001694  -0.0022624  -0.0008851
   50   0.0000196   0.0009886   0.0001694  -0.0016480  -0.0008851  -0.0022624
   51  -0.0000475  -0.0000475  -0.0002748  -0.0002748   0.0065596   0.0065596
   52   0.0001317   0.0000008   0.0056326   0.0000032   0.0023330   0.0003236
   53   0.0000008   0.0001317   0.0000032   0.0056326   0.0003236   0.0023330
   54   0.0000434   0.0000016   0.0086532   0.0000000   0.0000875  -0.0000121
   55  -0.0000447  -0.0000026   0.0001093   0.0000082  -0.0001451   0.0001526
   56   0.0000159   0.0000159  -0.0000647  -0.0000647  -0.0003477  -0.0003477
   57   0.0000016   0.0000434   0.0000000   0.0086532  -0.0000121   0.0000875
   58  -0.0000026  -0.0000447   0.0000082   0.0001093   0.0001526  -0.0001451
   59   0.0000035   0.0000007   0.0000420   0.0000015   0.0000039   0.0000089
   60   0.0000076   0.0000096   0.0001047  -0.0000045   0.0017286   0.0006124
   61   0.0000096   0.0000076  -0.0000045   0.0001047   0.0006124   0.0017286
   62   0.0000007   0.0000035   0.0000015   0.0000420   0.0000089   0.0000039
   63  -0.0000032   0.0000001   0.0000279  -0.0000227  -0.0000244   0.0000449
   64   0.0000001  -0.0000032  -0.0000227   0.0000279   0.0000449  -0.0000244
   65   0.0000021   0.0000003  -0.0000099  -0.0000006   0.0001518   0.0000257
   66   0.0000009   0.0000009  -0.0000011  -0.0000011   0.0003826   0.0003826
   67   0.0000003   0.0000021  -0.0000006  -0.0000099   0.0000257   0.0001518
   68   0.0000002   0.0000000   0.0000063   0.0000007  -0.0000003   0.0000000
   69  -0.0000015   0.0000001   0.0000128   0.0000007   0.0000174   0.0000350
   70  -0.0000005  -0.0000005  -0.0000026  -0.0000026   0.0000127   0.0000127
   71   0.0000000   0.0000002   0.0000007   0.0000063   0.0000000  -0.0000003
   72   0.0000001  -0.0000015   0.0000007   0.0000128   0.0000350   0.0000174
   73   0.0000001   0.0000000  -0.0000007   0.0000002   0.0000151   0.0000060
   74   0.0000003   0.0000001  -0.0000012  -0.0000002   0.0000680   0.0000372
   75   0.0000001   0.0000003  -0.0000002  -0.0000012   0.0000372   0.0000680
   76   0.0000000   0.0000001   0.0000002  -0.0000007   0.0000060   0.0000151
   77   0.0000000   0.0000000  -0.0000001  -0.0000000   0.0000000  -0.0000000
   78  -0.0000001  -0.0000000   0.0000004   0.0000000   0.0000035   0.0000100
   79   0.0000000  -0.0000000   0.0000002   0.0000001   0.0000135   0.0000060
   80  -0.0000000   0.0000000   0.0000001   0.0000002   0.0000060   0.0000135
   81   0.0000000   0.0000000  -0.0000000  -0.0000001  -0.0000000   0.0000000
   82  -0.0000000  -0.0000001   0.0000000   0.0000004   0.0000100   0.0000035
   83   0.0000000   0.0000000   0.0000000  -0.0000000  -0.0000000  -0.0000000
   84   0.0000000   0.0000000  -0.0000001  -0.0000000   0.0000190   0.0000178
   85   0.0000000   0.0000000  -0.0000000  -0.0000000   0.0000175   0.0000175
   86   0.0000000   0.0000000  -0.0000000  -0.0000001   0.0000178   0.0000190
   87   0.0000000   0.0000000  -0.0000000   0.0000000  -0.0000000  -0.0000000
   88  -0.0000000  -0.0000000   0.0000000  -0.0000000   0.0000114   0.0000078
   89   0.0000000   0.0000000  -0.0000000  -0.0000000   0.0000067   0.0000067
   90  -0.0000000  -0.0000000  -0.0000000   0.0000000   0.0000078   0.0000114
   91   0.0000000  -0.0000000  -0.0000000   0.0000000   0.0000000   0.0000000
   92  -0.0000000   0.0000000  -0.0000000   0.0000000   0.0000102   0.0000085
   93   0.0000000  -0.0000000   0.0000000  -0.0000000   0.0000085   0.0000102
   94  -0.0000000   0.0000000   0.0000000  -0.0000000   0.0000000   0.0000000
   95   0.0000000   0.0000000  -0.0000000   0.0000000   0.0000000   0.0000000
   96   0.0000000   0.0000000   0.0000000  -0.0000000   0.0000000   0.0000000
   97   0.9191772   0.0000489   0.0013151   0.0000001  -0.0110333   0.0007189
   98   0.0000489   0.9191772   0.0000001   0.0013151   0.0007189  -0.0110333
   99   0.0013151   0.0000001   0.9191772   0.0000489   0.0048114  -0.0000641
  100   0.0000001   0.0013151   0.0000489   0.9191772  -0.0000641   0.0048114
  101  -0.0110333   0.0007189   0.0048114  -0.0000641   3.9954500  -0.0138767
  102   0.0007189  -0.0110333  -0.0000641   0.0048114  -0.0138767   3.9954500
  103   0.9179273   0.0001041  -0.0136159   0.0000239   1.2116273   0.0037590
  104   0.0060310   0.0060310  -0.0009595  -0.0009595   1.3067006   1.3067006
  105   0.0001041   0.9179273   0.0000239  -0.0136159   0.0037590   1.2116273
  106  -0.0136159   0.0000239   0.9179273   0.0001041   0.0014630   0.0004572
  107  -0.0009595  -0.0009595   0.0060310   0.0060310  -0.0009204  -0.0009204
  108   0.0000239  -0.0136159   0.0001041   0.9179273   0.0004572   0.0014630
  109   0.0048114  -0.0000641  -0.0110333   0.0007189   0.0289221   0.0118264
  110  -0.0000641   0.0048114   0.0007189  -0.0110333   0.0118264   0.0289221
          103         104         105         106         107         108
    1  -0.0000000   0.0000000   0.0000000   0.0000000  -0.0000000   0.0000000
    2   0.0000000   0.0000000  -0.0000000   0.0000000  -0.0000000   0.0000000
    3  -0.0000000  -0.0000001   0.0000000   0.0000000   0.0000000   0.0000000
    4   0.0000000  -0.0000001  -0.0000000   0.0000000   0.0000000   0.0000000
    5   0.0000004  -0.0000004  -0.0000000  -0.0000003   0.0000001   0.0000000
    6  -0.0000000  -0.0000004   0.0000004   0.0000000   0.0000001  -0.0000003
    7  -0.0000062  -0.0000031  -0.0000005   0.0000113   0.0000001  -0.0000001
    8  -0.0000005  -0.0000031  -0.0000062  -0.0000001   0.0000001   0.0000113
    9   0.0001156  -0.0000537  -0.0000007  -0.0000309   0.0000167  -0.0000019
   10  -0.0000007  -0.0000537   0.0001156  -0.0000019   0.0000167  -0.0000309
   11   0.0055586  -0.0002696   0.0000049   0.0000862  -0.0000609   0.0000101
   12   0.0000049  -0.0002696   0.0055586   0.0000101  -0.0000609   0.0000862
   13   0.0000031   0.0000128   0.0000031   0.0000769   0.0005423   0.0000769
   14  -0.0000113   0.0000393  -0.0000113   0.0001177   0.0008402   0.0001177
   15   0.0000000   0.0000000   0.0000000  -0.0000000  -0.0000000  -0.0000000
   16   0.0000000   0.0000000   0.0000000  -0.0000000  -0.0000000  -0.0000000
   17   0.0000167   0.0000233   0.0000075   0.0004941   0.0000630   0.0002745
   18   0.0000075   0.0000233   0.0000167   0.0002745   0.0000630   0.0004941
   19   0.0000095   0.0000085   0.0000006   0.0001861   0.0002547   0.0000067
   20   0.0000013   0.0000054   0.0000013   0.0000360   0.0002003   0.0000360
   21   0.0000006   0.0000085   0.0000095   0.0000067   0.0002547   0.0001861
   22   0.0000327   0.0000637   0.0000108   0.0005586   0.0000473   0.0003615
   23   0.0000108   0.0000637   0.0000327   0.0003615   0.0000473   0.0005586
   24   0.0000052   0.0000193   0.0000077   0.0002222   0.0000063   0.0001461
   25   0.0000110   0.0000155   0.0000001   0.0001524   0.0002482   0.0000043
   26   0.0000001   0.0000155   0.0000110   0.0000043   0.0002482   0.0001524
   27   0.0000077   0.0000193   0.0000052   0.0001461   0.0000063   0.0002222
   28   0.0000317   0.0000364   0.0000070   0.0002667   0.0000144   0.0001963
   29   0.0000798   0.0001752   0.0000070   0.0005851   0.0002344   0.0001762
   30   0.0000070   0.0001752   0.0000798   0.0001762   0.0002344   0.0005851
   31   0.0000070   0.0000364   0.0000317   0.0001963   0.0000144   0.0002667
   32   0.0000120   0.0000922   0.0000293   0.0007968   0.0000494   0.0004453
   33   0.0000293   0.0000922   0.0000120   0.0004453   0.0000494   0.0007968
   34   0.0002360   0.0002454   0.0000210   0.0010513   0.0003097   0.0004217
   35   0.0002976   0.0021441   0.0002976   0.0000612   0.0001719   0.0000612
   36   0.0000210   0.0002454   0.0002360   0.0004217   0.0003097   0.0010513
   37  -0.0000477  -0.0000685   0.0000362   0.0028456   0.0003574   0.0017512
   38   0.0000362  -0.0000685  -0.0000477   0.0017512   0.0003574   0.0028456
   39   0.0024174   0.0065077   0.0003266   0.0002894  -0.0003559   0.0005936
   40   0.0003266   0.0065077   0.0024174   0.0005936  -0.0003559   0.0002894
   41  -0.0017395  -0.0001235   0.0002691   0.0057888   0.0007684   0.0062626
   42  -0.0001592  -0.0021046  -0.0001592   0.0008383   0.0009998   0.0008383
   43   0.0002691  -0.0001235  -0.0017395   0.0062626   0.0007684   0.0057888
   44   0.0102683   0.0106015   0.0001649  -0.0014234  -0.0002173   0.0005678
   45   0.0102665   0.0255066   0.0102665  -0.0001753  -0.0023277  -0.0001753
   46   0.0001649   0.0106015   0.0102683   0.0005678  -0.0002173  -0.0014234
   47  -0.0122310   0.0088528  -0.0004077   0.0309830   0.0081780   0.0163442
   48  -0.0004077   0.0088528  -0.0122310   0.0163442   0.0081780   0.0309830
   49   0.0309830   0.0081780   0.0163442  -0.0122310   0.0088528  -0.0004077
   50   0.0163442   0.0081780   0.0309830  -0.0004077   0.0088528  -0.0122310
   51  -0.0001753  -0.0023277  -0.0001753   0.0102665   0.0255066   0.0102665
   52  -0.0014234  -0.0002173   0.0005678   0.0102683   0.0106015   0.0001649
   53   0.0005678  -0.0002173  -0.0014234   0.0001649   0.0106015   0.0102683
   54   0.0000862  -0.0000609   0.0000101   0.0055586  -0.0002696   0.0000049
   55   0.0057888   0.0007684   0.0062626  -0.0017395  -0.0001235   0.0002691
   56   0.0008383   0.0009998   0.0008383  -0.0001592  -0.0021046  -0.0001592
   57   0.0000101  -0.0000609   0.0000862   0.0000049  -0.0002696   0.0055586
   58   0.0062626   0.0007684   0.0057888   0.0002691  -0.0001235  -0.0017395
   59  -0.0000309   0.0000167  -0.0000019   0.0001156  -0.0000537  -0.0000007
   60   0.0002894  -0.0003559   0.0005936   0.0024174   0.0065077   0.0003266
   61   0.0005936  -0.0003559   0.0002894   0.0003266   0.0065077   0.0024174
   62  -0.0000019   0.0000167  -0.0000309  -0.0000007  -0.0000537   0.0001156
   63   0.0028456   0.0003574   0.0017512  -0.0000477  -0.0000685   0.0000362
   64   0.0017512   0.0003574   0.0028456   0.0000362  -0.0000685  -0.0000477
   65   0.0010513   0.0003097   0.0004217   0.0002360   0.0002454   0.0000210
   66   0.0000612   0.0001719   0.0000612   0.0002976   0.0021441   0.0002976
   67   0.0004217   0.0003097   0.0010513   0.0000210   0.0002454   0.0002360
   68   0.0000113   0.0000001  -0.0000001  -0.0000062  -0.0000031  -0.0000005
   69   0.0007968   0.0000494   0.0004453   0.0000120   0.0000922   0.0000293
   70   0.0001177   0.0008402   0.0001177  -0.0000113   0.0000393  -0.0000113
   71  -0.0000001   0.0000001   0.0000113  -0.0000005  -0.0000031  -0.0000062
   72   0.0004453   0.0000494   0.0007968   0.0000293   0.0000922   0.0000120
   73   0.0002667   0.0000144   0.0001963   0.0000317   0.0000364   0.0000070
   74   0.0005851   0.0002344   0.0001762   0.0000798   0.0001752   0.0000070
   75   0.0001762   0.0002344   0.0005851   0.0000070   0.0001752   0.0000798
   76   0.0001963   0.0000144   0.0002667   0.0000070   0.0000364   0.0000317
   77  -0.0000003   0.0000001   0.0000000   0.0000004  -0.0000004  -0.0000000
   78   0.0002222   0.0000063   0.0001461   0.0000052   0.0000193   0.0000077
   79   0.0001524   0.0002482   0.0000043   0.0000110   0.0000155   0.0000001
   80   0.0000043   0.0002482   0.0001524   0.0000001   0.0000155   0.0000110
   81   0.0000000   0.0000001  -0.0000003  -0.0000000  -0.0000004   0.0000004
   82   0.0001461   0.0000063   0.0002222   0.0000077   0.0000193   0.0000052
   83   0.0000000   0.0000000   0.0000000  -0.0000000  -0.0000001   0.0000000
   84   0.0005586   0.0000473   0.0003615   0.0000327   0.0000637   0.0000108
   85   0.0000769   0.0005423   0.0000769   0.0000031   0.0000128   0.0000031
   86   0.0003615   0.0000473   0.0005586   0.0000108   0.0000637   0.0000327
   87   0.0000000   0.0000000   0.0000000   0.0000000  -0.0000001  -0.0000000
   88   0.0001861   0.0002547   0.0000067   0.0000095   0.0000085   0.0000006
   89   0.0000360   0.0002003   0.0000360   0.0000013   0.0000054   0.0000013
   90   0.0000067   0.0002547   0.0001861   0.0000006   0.0000085   0.0000095
   91   0.0000000  -0.0000000   0.0000000  -0.0000000   0.0000000   0.0000000
   92   0.0004941   0.0000630   0.0002745   0.0000167   0.0000233   0.0000075
   93   0.0002745   0.0000630   0.0004941   0.0000075   0.0000233   0.0000167
   94   0.0000000  -0.0000000   0.0000000   0.0000000   0.0000000  -0.0000000
   95  -0.0000000  -0.0000000  -0.0000000   0.0000000   0.0000000   0.0000000
   96  -0.0000000  -0.0000000  -0.0000000   0.0000000   0.0000000   0.0000000
   97   0.9179273   0.0060310   0.0001041  -0.0136159  -0.0009595   0.0000239
   98   0.0001041   0.0060310   0.9179273   0.0000239  -0.0009595  -0.0136159
   99  -0.0136159  -0.0009595   0.0000239   0.9179273   0.0060310   0.0001041
  100   0.0000239  -0.0009595  -0.0136159   0.0001041   0.0060310   0.9179273
  101   1.2116273   1.3067006   0.0037590   0.0014630  -0.0009204   0.0004572
  102   0.0037590   1.3067006   1.2116273   0.0004572  -0.0009204   0.0014630
  103   3.8977829  -0.0059951   0.0002635   1.6632094   0.0307570   0.0007720
  104  -0.0059951   4.0402065  -0.0059951   0.0307570   1.2708755   0.0307570
  105   0.0002635  -0.0059951   3.8977829   0.0007720   0.0307570   1.6632094
  106   1.6632094   0.0307570   0.0007720   3.8977829  -0.0059951   0.0002635
  107   0.0307570   1.2708755   0.0307570  -0.0059951   4.0402065  -0.0059951
  108   0.0007720   0.0307570   1.6632094   0.0002635  -0.0059951   3.8977829
  109   0.0014630  -0.0009204   0.0004572   1.2116273   1.3067006   0.0037590
  110   0.0004572  -0.0009204   0.0014630   0.0037590   1.3067006   1.2116273
          109         110
    1   0.0000000   0.0000000
    2   0.0000000   0.0000000
    3  -0.0000000  -0.0000000
    4  -0.0000000  -0.0000000
    5   0.0000000  -0.0000000
    6  -0.0000000   0.0000000
    7  -0.0000003   0.0000000
    8   0.0000000  -0.0000003
    9   0.0000039   0.0000089
   10   0.0000089   0.0000039
   11   0.0000875  -0.0000121
   12  -0.0000121   0.0000875
   13   0.0000175   0.0000175
   14   0.0000127   0.0000127
   15   0.0000000   0.0000000
   16   0.0000000   0.0000000
   17   0.0000102   0.0000085
   18   0.0000085   0.0000102
   19   0.0000114   0.0000078
   20   0.0000067   0.0000067
   21   0.0000078   0.0000114
   22   0.0000190   0.0000178
   23   0.0000178   0.0000190
   24   0.0000035   0.0000100
   25   0.0000135   0.0000060
   26   0.0000060   0.0000135
   27   0.0000100   0.0000035
   28   0.0000151   0.0000060
   29   0.0000680   0.0000372
   30   0.0000372   0.0000680
   31   0.0000060   0.0000151
   32   0.0000174   0.0000350
   33   0.0000350   0.0000174
   34   0.0001518   0.0000257
   35   0.0003826   0.0003826
   36   0.0000257   0.0001518
   37  -0.0000244   0.0000449
   38   0.0000449  -0.0000244
   39   0.0017286   0.0006124
   40   0.0006124   0.0017286
   41  -0.0001451   0.0001526
   42  -0.0003477  -0.0003477
   43   0.0001526  -0.0001451
   44   0.0023330   0.0003236
   45   0.0065596   0.0065596
   46   0.0003236   0.0023330
   47  -0.0022624  -0.0008851
   48  -0.0008851  -0.0022624
   49   1.3155228   0.0429566
   50   0.0429566   1.3155228
   51   0.0054740   0.0054740
   52  -0.0088340   0.0005366
   53   0.0005366  -0.0088340
   54  -0.0014619   0.0001985
   55   0.0303427   0.0160988
   56   0.0076891   0.0076891
   57   0.0001985  -0.0014619
   58   0.0160988   0.0303427
   59   0.0010167   0.0000268
   60  -0.0004873   0.0005835
   61   0.0005835  -0.0004873
   62   0.0000268   0.0010167
   63   0.0099088   0.0052872
   64   0.0052872   0.0099088
   65   0.0031080   0.0009273
   66  -0.0002229  -0.0002229
   67   0.0009273   0.0031080
   68   0.0000170  -0.0000044
   69   0.0021001   0.0011101
   70   0.0005912   0.0005912
   71  -0.0000044   0.0000170
   72   0.0011101   0.0021001
   73   0.0006935   0.0004497
   74   0.0016663   0.0003496
   75   0.0003496   0.0016663
   76   0.0004497   0.0006935
   77   0.0000006   0.0000002
   78   0.0005631   0.0003630
   79   0.0004536   0.0000090
   80   0.0000090   0.0004536
   81   0.0000002   0.0000006
   82   0.0003630   0.0005631
   83   0.0000002   0.0000001
   84   0.0014424   0.0008009
   85   0.0002573   0.0002573
   86   0.0008009   0.0014424
   87   0.0000001   0.0000002
   88   0.0005057   0.0000134
   89   0.0001040   0.0001040
   90   0.0000134   0.0005057
   91  -0.0000000  -0.0000000
   92   0.0012376   0.0006023
   93   0.0006023   0.0012376
   94  -0.0000000  -0.0000000
   95  -0.0000000  -0.0000000
   96  -0.0000000  -0.0000000
   97   0.0048114  -0.0000641
   98  -0.0000641   0.0048114
   99  -0.0110333   0.0007189
  100   0.0007189  -0.0110333
  101   0.0289221   0.0118264
  102   0.0118264   0.0289221
  103   0.0014630   0.0004572
  104  -0.0009204  -0.0009204
  105   0.0004572   0.0014630
  106   1.2116273   0.0037590
  107   1.3067006   1.3067006
  108   0.0037590   1.2116273
  109   3.9954500  -0.0138767
  110  -0.0138767   3.9954500


 Total job time:  49367.56s(wall), 48254.40s(cpu) 
 Sat Sep  9 07:22:41 2023

        *************************************************************
        *                                                           *
        *  Thank you very much for using Q-Chem.  Have a nice day.  *
        *                                                           *
        *************************************************************


