                  Welcome to Q-Chem
     A Quantum Leap Into The Future Of Chemistry


 Q-Chem 6.0 (devel), Q-Chem, Inc., Pleasanton, CA (2022)

 E. Epifanovsky,  A. T. B. Gilbert,  Xintian Feng,  Joonho Lee,  Yuezhi Mao,  
 N. Mardirossian,  P. Pokhilko,  A. White,  M. Wormit,  M. P. Coons,  
 A. L. Dempwolff,  Zhengting Gan,  D. Hait,  P. R. Horn,  L. D. Jacobson,  
 I. Kaliman,  J. Kussmann,  A. W. Lange,  Ka Un Lao,  D. S. Levine,  Jie Liu,  
 S. C. McKenzie,  A. F. Morrison,  K. Nanda,  F. Plasser,  D. R. Rehn,  
 M. L. Vidal,  Zhi-Qiang You,  Ying Zhu,  B. Alam,  B. Albrecht,  
 A. Aldossary,  E. Alguire,  J. H. Andersen,  V. Athavale,  D. Barton,  
 K. Begam,  A. Behn,  N. Bellonzi,  Y. A. Bernard,  E. J. Berquist,  
 H. Burton,  A. Carreras,  K. Carter-Fenk,  Romit Chakraborty,  
 Chandrima Chakravarty,  Junhan Chen,  A. D. Chien,  K. D. Closser,  
 V. Cofer-Shabica,  L. Cunha,  S. Dasgupta,  Jia Deng,  M. de Wergifosse,  
 M. Diedenhofen,  Hainam Do,  S. Ehlert,  Po-Tung Fang,  S. Fatehi,  
 Qingguo Feng,  T. Friedhoff,  B. Ganoe,  J. Gayvert,  Qinghui Ge,  
 G. Gidofalvi,  M. Goldey,  J. Gomes,  C. Gonzalez-Espinoza,  S. Gulania,  
 A. Gunina,  J. A. Gyamfi,  M. W. D. Hanson-Heine,  P. H. P. Harbach,  
 A. W. Hauser,  M. F. Herbst,  M. Hernandez Vera,  M. Hodecker,  
 Z. C. Holden,  S. Houck,  Xunkun Huang,  Kerwin Hui,  B. C. Huynh,  
 K. Ikeda,  M. Ivanov,  Hyunjun Ji,  Zuxin Jin,  Hanjie Jiang,  B. Kaduk,  
 S. Kaehler,  R. Kang,  K. Khistyaev,  Jaehoon Kim,  Yongbin Kim,  
 P. Klunzinger,  Z. Koczor-Benda,  Joong Hoon Koh,  D. Kosenkov,  
 Saikiran Kotaru,  L. Koulias,  T. Kowalczyk,  C. M. Krauter,  K. Kue,  
 A. Kunitsa,  T. Kus,  A. Landau,  K. V. Lawler,  D. Lefrancois,  S. Lehtola,  
 Rain Li,  Shaozhi Li,  Yi-Pei Li,  Jiashu Liang,  M. Liebenthal,  
 Hung-Hsuan Lin,  You-Sheng Lin,  Fenglai Liu,  Kuan-Yu Liu,  
 M. Loipersberger,  A. Luenser,  C. Malbon,  A. Manjanath,  P. Manohar,  
 E. Mansoor,  S. F. Manzer,  Shan-Ping Mao,  A. V. Marenich,  T. Markovich,  
 S. Mason,  F. Matz,  S. A. Maurer,  P. F. McLaughlin,  M. F. S. J. Menger,  
 J.-M. Mewes,  S. A. Mewes,  P. Morgante,  Mohammad Mostafanejad,  
 J. W. Mullinax,  K. J. Oosterbaan,  G. Paran,  V. Parravicini,  
 Alexander C. Paul,  Suranjan K. Paul,  F. Pavosevic,  Zheng Pei,  S. Prager,  
 E. I. Proynov,  E. Ramos,  B. Rana,  A. E. Rask,  A. Rettig,  R. M. Richard,  
 F. Rob,  E. Rossomme,  T. Scheele,  M. Scheurer,  M. Schneider,  
 P. E. Schneider,  N. Sergueev,  S. M. Sharada,  Hengyuan Shen,  
 W. Skomorowski,  D. W. Small,  C. J. Stein,  Yingli Su,  Yu-Chuan Su,  
 E. J. Sundstrom,  Zhen Tao,  J. Thirman,  Hung-Yi Tsai,  T. Tsuchimochi,  
 N. M. Tubman,  C. Utku,  S. P. Veccham,  O. Vydrov,  J. Wenzel,  
 Jonathan Wong,  J. Witte,  A. Yamada,  Chou-Hsun Yang,  Kun Yao,  
 S. Yeganeh,  S. R. Yost,  A. Zech,  F. Zeller,  Igor Ying Zhang,  
 Xing Zhang,  Yu Zhang,  D. Zuev,  A. Aspuru-Guzik,  A. T. Bell,  
 N. A. Besley,  K. B. Bravaya,  B. R. Brooks,  D. Casanova,  Jeng-Da Chai,  
 Hsing-Ta Chen,  S. Coriani,  C. J. Cramer,  A. E. DePrince, III,  
 R. A. DiStasio Jr.,  A. Dreuw,  B. D. Dunietz,  T. R. Furlani,  
 W. A. Goddard III,  S. Grimme,  S. Hammes-Schiffer,  T. Head-Gordon,  
 W. J. Hehre,  Chao-Ping Hsu,  T.-C. Jagau,  Yousung Jung,  A. Klamt,  
 Jing Kong,  D. S. Lambrecht,  Xiangyuan Li,  WanZhen Liang,  N. J. Mayhall,  
 C. W. McCurdy,  J. B. Neaton,  T. Neudecker,  C. Ochsenfeld,  
 J. A. Parkhill,  R. Peverati,  V. A. Rassolov,  Haisheng Ren,  Yihan Shao,  
 L. V. Slipchenko,  R. P. Steele,  J. E. Subotnik,  A. J. W. Thom,  
 A. Tkatchenko,  D. G. Truhlar,  T. Van Voorhis,  Fan Wang,  
 T. A. Wesolowski,  K. B. Whaley,  H. L. Woodcock III,  P. M. Zimmerman,  
 S. Faraji,  P. M. W. Gill,  M. Head-Gordon,  J. M. Herbert,  A. I. Krylov

 Contributors to earlier versions of Q-Chem not listed above: 
 R. D. Adamson,  B. Austin,  R. Baer,  J. Baker,  G. J. O. Beran,  
 K. Brandhorst,  S. T. Brown,  E. F. C. Byrd,  Arup K. Chakraborty,  
 G. K. L. Chan,  Chun-Min Chang,  Yunqing Chen,  C.-L. Cheng,  
 Siu Hung Chien,  D. M. Chipman,  D. L. Crittenden,  H. Dachsel,  
 R. J. Doerksen,  A. D. Dutoi,  R. G. Edgar,  J. Fosso-Tande,  
 L. Fusti-Molnar,  D. Ghosh,  A. Ghysels,  A. Golubeva-Zadorozhnaya,  
 J. Gonthier,  M. S. Gordon,  S. R. Gwaltney,  G. Hawkins,  J. E. Herr,  
 A. Heyden,  S. Hirata,  E. G. Hohenstein,  G. Kedziora,  F. J. Keil,  
 C. Kelley,  Jihan Kim,  R. A. King,  R. Z. Khaliullin,  P. P. Korambath,  
 W. Kurlancheek,  A. Laurent,  A. M. Lee,  M. S. Lee,  S. V. Levchenko,  
 Ching Yeh Lin,  D. Liotard,  E. Livshits,  R. C. Lochan,  I. Lotan,  
 L. A. Martinez-Martinez,  P. E. Maslen,  N. Nair,  D. P. O'Neill,  
 D. Neuhauser,  E. Neuscamman,  C. M. Oana,  R. Olivares-Amaya,  R. Olson,  
 T. M. Perrine,  B. Peters,  P. A. Pieniazek,  A. Prociuk,  Y. M. Rhee,  
 J. Ritchie,  M. A. Rohrdanz,  E. Rosta,  N. J. Russ,  H. F. Schaefer III,  
 M. W. Schmidt,  N. E. Schultz,  S. Sharma,  N. Shenvi,  C. D. Sherrill,  
 A. C. Simmonett,  A. Sodt,  T. Stein,  D. Stuck,  K. S. Thanthiriwatte,  
 V. Vanovschi,  L. Vogt,  Tao Wang,  A. Warshel,  M. A. Watson,  
 C. F. Williams,  Q. Wu,  X. Xu,  Jun Yang,  W. Zhang,  Yan Zhao

   Please cite Q-Chem as follows:
  "Software for the frontiers of quantum chemistry:
   An overview of developments in the Q-Chem 5 package"
   J. Chem. Phys. 155, 084801 (2021)
   https://doi.org/10.1063/5.0055522 (open access)

 Q-Chem 6.0.1 for Intel X86 EM64T Linux

 Parts of Q-Chem use Armadillo 9.900.5 (Nocturnal Misbehaviour).
 http://arma.sourceforge.net/

 Q-Chem begins on Mon Jan 22 11:15:30 2024  

 Host: atlas-068
0

     Scratch files written to ./qchem593//
 Processing $rem in /scratch/abel/SOFTWARE/qchem/config/preferences:
 Processing $rem in /dipc/acebg/.qchemrc:

 Checking the input file for inconsistencies... 	...done.

--------------------------------------------------------------
User input:
--------------------------------------------------------------
$comment
 TD-DFT/TDA CALCULATION
$end

$molecule
 READ anthracene_opt.molecule
$end

$rem
!**REFERENCE***     
JOBTYPE            SP
EXCHANGE           GEN   !gen:specify in $xc_functional
CORRELATION        NONE
BASIS              def2-TZVP  
!BASIS2             STO-3G

!***SCF REFERENCE***
!INPUT_BOHR          TRUE
!SKIP_SCFMAN        FALSE
!UNRESTRICTED       FALSE !rectricted-TDDFT not avail in doublets
!SCF_GUESS          core
!SCF_GUESS_MIX      FALSE
!SCF_GUESS_ALWAYS   FALSE
MAX_SCF_CYCLES     500
!SCF_CONVERGENCE    10
SCF_ALGORITHM      DIIS_GDM !DIIS,DM,DIIS_DM,GDM,DIIS_GDM,GD

!SYMMETRY           TRUE !use of symmetry for calculating integrals
!SYM_IGNORE         FALSE !turn off using symmetry
!SYM_TOL            5 !tolerance for determining point group

!THRESH             14
!SCF_FINAL_PRINT    2 !0,1,2,3

!****CIS****
CIS_N_ROOTS        50
!CIS_CONVERGENCE   10
MAX_CIS_CYCLES     200
CIS_SINGLETS      true
CIS_TRIPLETS      true
CALC_SOC           2 !not available in doublets in TDDFT
STS_ANGMOM        true !orbit. ang. moment. between states
!RPA                FALSE !in default RPA=1 and TDA calc used as guess of TDDFT

!Spin-orbit coupling calculations are implemented for
!restricted, unrestricted CIS/TDDFT, and SF TDDFT
!using Wigner-Eckart theorem: Try CALC_SOC = 2.
!TDDFT based on a restricted open-shell reference is not available

!****MEMORY****
MEM_TOTAL          70000        !Default 2000 MB
MEM_STATIC         25000         !Default 64 MB

!**Molecular Properties and Analysis **
!POP_MULLIKEN       FALSE   !Run Mulliken population analysis
!LOWDIN_POPULATION  FALSE  !Run Löwdin population analysis
GUI                0
STATE_ANALYSIS     TRUE
!MOLDEN_FORMAT      FALSE
!PRINT_ORBITALS     5
!CIS_MOMENTS        TRUE !TDA Excited-State Multipoles
$end

$xc_functional
!**50-50 functional**
X  HF    0.50
X  S     0.08
X  B     0.42
C  VWN   0.19
C  LYP   0.81
$end

--------------------------------------------------------------
 ----------------------------------------------------------------
             Standard Nuclear Orientation (Angstroms)
    I     Atom           X                Y                Z
 ----------------------------------------------------------------
    1      C       1.2528696110    -0.7144616643     0.0000611748
    2      C       2.4661185256    -1.3873929098     0.0000888763
    3      H       2.4670317640    -2.4712684532    -0.0003057438
    4      C       3.6841006918    -0.6876643530     0.0000015246
    5      H       4.6172560521    -1.2351253405    -0.0000635121
    6      C       3.6841005673     0.6876646405     0.0001354170
    7      H       4.6172557863     1.2351258725     0.0001490616
    8      C       2.4661182998     1.3873930201     0.0000396542
    9      H       2.4670309197     2.4712685933     0.0003432278
   10      C       1.2528695387     0.7144615088    -0.0000846763
   11      C       0.0000005393    -1.4023074043    -0.0001838106
   12      H       0.0000006531    -2.4857083698    -0.0004570569
   13      C      -0.0000005712     1.4023074721    -0.0001838566
   14      H      -0.0000006933     2.4857084373    -0.0004585605
   15      C      -1.2528696259     0.7144617005     0.0000593180
   16      C      -2.4661185573     1.3873929157     0.0000876230
   17      H      -2.4670314450     2.4712684589    -0.0003085620
   18      C      -3.6841006695     0.6876642646     0.0000023815
   19      H      -4.6172559004     1.2351254729    -0.0000599772
   20      C      -3.6841005823    -0.6876647288     0.0001370081
   21      H      -4.6172558928    -1.2351258048     0.0001546533
   22      C      -2.4661182611    -1.3873930144     0.0000375438
   23      H      -2.4670312506    -2.4712685875     0.0003405012
   24      C      -1.2528695051    -0.7144614941    -0.0000871830
 ----------------------------------------------------------------
 Molecular Point Group                 C1    NOp =  1
 Largest Abelian Subgroup              C1    NOp =  1
 Nuclear Repulsion Energy =         766.54296530 hartrees
 There are       48 alpha and       46 beta electrons
 Requested basis set is def2-TZVP
 There are 194 shells and 494 basis functions

 Q-Chem warning in module libmdc/get_mega.C, line 167:

 Allowed MEM_STATIC has been capped at MEM_STATIC=8191.
 Reduce the value of MEM_STATIC to silence this warning.


 Total QAlloc Memory Limit  70000 MB
 Mega-Array Size      8007 MB
 MEM_STATIC part      8191 MB

 A cutoff of  1.0D-12 yielded  15401 shell pairs
 There are    100621 function pairs (    130572 Cartesian)
 Smallest overlap matrix eigenvalue = 5.53E-06

 Scale SEOQF with 1.000000e-01/1.000000e-01/1.000000e+00

 Standard Electronic Orientation quadrupole field applied
 Nucleus-field energy     =     0.0000000318 hartrees
 Guess from superposition of atomic densities
 Warning:  Energy on first SCF cycle will be non-variational
 SAD guess density has 94.000000 electrons

 -----------------------------------------------------------------------
  General SCF calculation program by
  Eric Jon Sundstrom, Paul Horn, Yuezhi Mao, Dmitri Zuev, Alec White,
  David Stuck, Shaama M.S., Shane Yost, Joonho Lee, David Small,
  Daniel Levine, Susi Lehtola, Hugh Burton, Evgeny Epifanovsky,
  Bang C. Huynh
 -----------------------------------------------------------------------
 Exchange:     0.5000 Hartree-Fock + 0.0800 Slater + 0.4200 B88
 Correlation:  0.1900 VWN5 + 0.8100 LYP
 Using SG-1 standard quadrature grid
 A unrestricted SCF calculation will be
 performed using DIIS, GDM
 SCF converges when RMS gradient is below 1.0e-08
 ---------------------------------------
  Cycle       Energy         DIIS error
 ---------------------------------------
    1    -544.0203524074      1.36e-02  
    2    -539.1235175481      9.23e-04  Done DIIS. Switching to GDM
 ---------------------------------------
  Cycle       Energy        RMS Gradient
 ---------------------------------------
    1    -539.1235175481      9.79e-02   Descent step
    2    -539.2371750474      3.43e-02   Normal BFGS step
    3    -539.2542134314      2.82e-02   Normal BFGS step
    4    -539.2558692765      2.88e-02   Normal BFGS step
    5    -539.2572283511      7.27e-03   Normal BFGS step
    6    -539.2573913319      3.87e-03   Normal BFGS step
    7    -539.2575244919      1.33e-03   Normal BFGS step
    8    -539.2575324042      7.00e-04   Normal BFGS step
    9    -539.2575352562      3.56e-04   Normal BFGS step
   10    -539.2575362639      1.23e-04   Normal BFGS step
   11    -539.2575364673      2.07e-05   Normal BFGS step
   12    -539.2575364781      9.18e-06   Normal BFGS step
   13    -539.2575364794      2.67e-06   Normal BFGS step
   14    -539.2575364794      4.54e-07   Normal BFGS step
   15    -539.2575364792      1.46e-07   Normal BFGS step
  GDM::WARNING energy changes are now smaller than effective accuracy.
  GDM::        calculation will continue, but THRESH should be increased
  GDM::        or SCF_CONVERGENCE decreased. 
  GDM::        effective_thresh = 4.20e-09
   16    -539.2575364789      5.69e-08   Normal BFGS step
   17    -539.2575364790      5.12e-08   Normal BFGS step
  GDM::WARNING energy changes are now smaller than effective accuracy.
  GDM::        calculation will continue, but THRESH should be increased
  GDM::        or SCF_CONVERGENCE decreased. 
  GDM::        effective_thresh = 4.20e-09
   18    -539.2575364789      1.10e-08   Normal BFGS step
  GDM::WARNING energy changes are now smaller than effective accuracy.
  GDM::        calculation will continue, but THRESH should be increased
  GDM::        or SCF_CONVERGENCE decreased. 
  GDM::        effective_thresh = 4.20e-09
   19    -539.2575364790      4.60e-09  Convergence criterion met
 ---------------------------------------
 SCF time:   CPU 2259.92s  wall 2262.00s 
<S^2> =          2.045285847
 SCF   energy in the final basis set =     -539.2575364790
 Total energy in the final basis set =     -539.2575364790
 
 MAX_CIS_SUBSPACE fits in available memory
 Direct TDDFT/TDA calculation will be performed
 Exchange:     0.5000 Hartree-Fock + 0.0800 Slater + 0.4200 B88
 Correlation:  0.1900 VWN5 + 0.8100 LYP
 Using SG-1 standard quadrature grid
 CIS energy converged when residual is below 10e- 6
 ---------------------------------------------------
 Iter    Rts Conv    Rts Left    Ttl Dev     Max Dev
 ---------------------------------------------------
   1         0          50      0.015984    0.001100
   2         0          50      0.004938    0.000620
   3         0          50      0.001841    0.000295
   4         0          50      0.001128    0.000336
   5        24          26      0.000656    0.000177
   6        36          14      0.000225    0.000069
   7        40          10      0.000179    0.000067
   8        43           7      0.000073    0.000023
   9        46           4      0.000034    0.000008
  10        48           2      0.000021    0.000002
  11        50           0      0.000018    0.000001    Roots Converged
 ---------------------------------------------------
 
 ---------------------------------------------------
         TDDFT/TDA Excitation Energies              
 ---------------------------------------------------

 Excited state   1: excitation energy (eV) =    2.2465
 Total energy for state  1:                  -539.17497971 au
    <S**2>     :  2.1295
    Trans. Mom.:  0.1289 X  -0.0000 Y  -0.0000 Z
    Strength   :     0.0009140005
    S(    2) --> V(    1) amplitude =  0.6617 alpha
    D(   46) --> S(    1) amplitude =  0.7246 beta

 Excited state   2: excitation energy (eV) =    2.3394
 Total energy for state  2:                  -539.17156663 au
    <S**2>     :  2.2634
    Trans. Mom.:  0.0000 X   0.0000 Y  -0.0000 Z
    Strength   :     0.0000000000
    S(    2) --> V(    2) amplitude =  0.6875 alpha
    D(   45) --> S(    1) amplitude = -0.6785 beta

 Excited state   3: excitation energy (eV) =    2.7964
 Total energy for state  3:                  -539.15477010 au
    <S**2>     :  2.0533
    Trans. Mom.:  0.0000 X  -0.0000 Y   0.0000 Z
    Strength   :     0.0000000001
    S(    2) --> V(    2) amplitude =  0.6927 alpha
    D(   45) --> S(    1) amplitude =  0.6908 beta

 Excited state   4: excitation energy (eV) =    2.9057
 Total energy for state  4:                  -539.15075496 au
    <S**2>     :  2.1488
    Trans. Mom.:  0.0000 X  -0.0000 Y   0.0000 Z
    Strength   :     0.0000000000
    S(    2) --> V(    3) amplitude =  0.7563 alpha
    D(   44) --> S(    1) amplitude =  0.6006 beta

 Excited state   5: excitation energy (eV) =    3.4134
 Total energy for state  5:                  -539.13209499 au
    <S**2>     :  2.1630
    Trans. Mom.: -2.5115 X   0.0000 Y  -0.0000 Z
    Strength   :     0.5274762640
    S(    1) --> V(    2) amplitude = -0.1951 alpha
    S(    2) --> V(    1) amplitude =  0.6928 alpha
    D(   45) --> S(    2) amplitude = -0.2271 beta
    D(   46) --> S(    1) amplitude = -0.6327 beta

 Excited state   6: excitation energy (eV) =    3.5313
 Total energy for state  6:                  -539.12776501 au
    <S**2>     :  2.5855
    Trans. Mom.:  0.0000 X  -0.1752 Y  -0.0000 Z
    Strength   :     0.0026553033
    D(   46) --> V(    2) amplitude =  0.3014 alpha
    S(    2) --> V(    4) amplitude = -0.5241 alpha
    D(   43) --> S(    1) amplitude =  0.6959 beta
    D(   45) --> V(    1) amplitude = -0.2888 beta

 Excited state   7: excitation energy (eV) =    4.0855
 Total energy for state  7:                  -539.10739661 au
    <S**2>     :  2.1594
    Trans. Mom.:  0.0000 X   0.0000 Y  -0.0001 Z
    Strength   :     0.0000000015
    S(    2) --> V(    3) amplitude = -0.6040 alpha
    D(   44) --> S(    1) amplitude =  0.7416 beta

 Excited state   8: excitation energy (eV) =    4.1998
 Total energy for state  8:                  -539.10319687 au
    <S**2>     :  2.5248
    Trans. Mom.: -0.0000 X   0.0000 Y  -0.0000 Z
    Strength   :     0.0000000000
    D(   45) --> V(    3) amplitude =  0.2282 alpha
    S(    1) --> V(    1) amplitude =  0.5631 alpha
    D(   44) --> V(    2) amplitude = -0.2263 beta
    D(   46) --> S(    2) amplitude =  0.7009 beta

 Excited state   9: excitation energy (eV) =    4.6594
 Total energy for state  9:                  -539.08630645 au
    <S**2>     :  2.9707
    Trans. Mom.: -0.0000 X  -0.0653 Y  -0.0000 Z
    Strength   :     0.0004864911
    D(   45) --> V(    1) amplitude =  0.4227 alpha
    S(    1) --> V(    3) amplitude =  0.5050 alpha
    D(   37) --> S(    1) amplitude = -0.1670 beta
    D(   43) --> S(    1) amplitude =  0.1792 beta
    D(   44) --> S(    2) amplitude =  0.5021 beta
    D(   46) --> V(    2) amplitude = -0.4246 beta

 Excited state  10: excitation energy (eV) =    4.8445
 Total energy for state 10:                  -539.07950494 au
    <S**2>     :  2.2081
    Trans. Mom.: -0.4021 X   0.0000 Y   0.0000 Z
    Strength   :     0.0191896397
    D(   45) --> V(    4) amplitude = -0.1531 alpha
    S(    1) --> V(    2) amplitude = -0.6308 alpha
    D(   43) --> V(    2) amplitude = -0.1694 beta
    D(   45) --> S(    2) amplitude =  0.7311 beta

 Excited state  11: excitation energy (eV) =    4.9357
 Total energy for state 11:                  -539.07615461 au
    <S**2>     :  2.0750
    Trans. Mom.: -0.0001 X   0.0004 Y  -0.0000 Z
    Strength   :     0.0000000207
    S(    2) --> V(    6) amplitude =  0.9663 alpha

 Excited state  12: excitation energy (eV) =    4.9938
 Total energy for state 12:                  -539.07401616 au
    <S**2>     :  2.0955
    Trans. Mom.: -0.0000 X   0.0000 Y  -0.0602 Z
    Strength   :     0.0004430514
    S(    1) --> V(    6) amplitude =  0.1557 alpha
    S(    2) --> V(    5) amplitude =  0.9392 alpha
    S(    2) --> V(    8) amplitude =  0.2592 alpha

 Excited state  13: excitation energy (eV) =    5.0122
 Total energy for state 13:                  -539.07334330 au
    <S**2>     :  2.1184
    Trans. Mom.: -0.0000 X  -1.1029 Y  -0.0000 Z
    Strength   :     0.1493756855
    S(    2) --> V(    4) amplitude =  0.7108 alpha
    D(   43) --> S(    1) amplitude =  0.6240 beta
    D(   45) --> V(    1) amplitude =  0.1612 beta

 Excited state  14: excitation energy (eV) =    5.1351
 Total energy for state 14:                  -539.06882356 au
    <S**2>     :  2.0962
    Trans. Mom.: -0.0001 X   0.0015 Y   0.0000 Z
    Strength   :     0.0000002910
    D(   42) --> S(    1) amplitude =  0.9630 beta

 Excited state  15: excitation energy (eV) =    5.1718
 Total energy for state 15:                  -539.06747678 au
    <S**2>     :  2.1217
    Trans. Mom.: -0.0000 X   0.0004 Y  -0.0000 Z
    Strength   :     0.0000000182
    S(    2) --> V(    7) amplitude =  0.9561 alpha
    D(   41) --> S(    1) amplitude =  0.1925 beta

 Excited state  16: excitation energy (eV) =    5.2272
 Total energy for state 16:                  -539.06543935 au
    <S**2>     :  2.1049
    Trans. Mom.: -0.0002 X  -0.0001 Y   0.0000 Z
    Strength   :     0.0000000067
    S(    2) --> V(    7) amplitude = -0.1972 alpha
    D(   41) --> S(    1) amplitude =  0.9475 beta

 Excited state  17: excitation energy (eV) =    5.4989
 Total energy for state 17:                  -539.05545615 au
    <S**2>     :  2.1037
    Trans. Mom.:  0.0000 X  -0.0000 Y   0.0002 Z
    Strength   :     0.0000000031
    S(    1) --> V(    1) amplitude =  0.6906 alpha
    D(   39) --> S(    1) amplitude = -0.1802 beta
    D(   46) --> S(    2) amplitude = -0.6379 beta

 Excited state  18: excitation energy (eV) =    5.5501
 Total energy for state 18:                  -539.05357514 au
    <S**2>     :  3.4434
    Trans. Mom.: -0.0000 X   0.0000 Y  -0.0000 Z
    Strength   :     0.0000000000
    D(   45) --> V(    2) amplitude = -0.3707 alpha
    D(   46) --> V(    1) amplitude =  0.4228 alpha
    S(    1) --> V(    4) amplitude = -0.3022 alpha
    D(   43) --> S(    2) amplitude =  0.4535 beta
    D(   45) --> V(    2) amplitude = -0.4101 beta
    D(   46) --> V(    1) amplitude =  0.3680 beta

 Excited state  19: excitation energy (eV) =    5.6420
 Total energy for state 19:                  -539.05019834 au
    <S**2>     :  3.3007
    Trans. Mom.: -0.0000 X   0.0510 Y   0.0000 Z
    Strength   :     0.0003600531
    D(   46) --> V(    2) amplitude = -0.5118 alpha
    S(    1) --> V(    3) amplitude = -0.3102 alpha
    S(    2) --> V(    4) amplitude = -0.3338 alpha
    D(   43) --> S(    1) amplitude =  0.1750 beta
    D(   43) --> V(    9) amplitude =  0.1546 beta
    D(   44) --> S(    2) amplitude = -0.2065 beta
    D(   44) --> V(    3) amplitude =  0.1693 beta
    D(   45) --> V(    1) amplitude =  0.5294 beta
    D(   46) --> V(    2) amplitude = -0.1817 beta

 Excited state  20: excitation energy (eV) =    5.6620
 Total energy for state 20:                  -539.04946324 au
    <S**2>     :  2.1146
    Trans. Mom.: -0.0000 X  -0.0000 Y   0.0397 Z
    Strength   :     0.0002185655
    S(    2) --> V(    5) amplitude = -0.2780 alpha
    S(    2) --> V(    8) amplitude =  0.9186 alpha

 Excited state  21: excitation energy (eV) =    5.7635
 Total energy for state 21:                  -539.04573203 au
    <S**2>     :  2.1936
    Trans. Mom.: -3.8916 X  -0.0000 Y  -0.0000 Z
    Strength   :     2.1384162931
    S(    1) --> V(    2) amplitude =  0.6996 alpha
    S(    2) --> V(    1) amplitude =  0.2116 alpha
    D(   45) --> S(    2) amplitude =  0.5877 beta
    D(   46) --> S(    1) amplitude = -0.2059 beta

 Excited state  22: excitation energy (eV) =    5.8588
 Total energy for state 22:                  -539.04222915 au
    <S**2>     :  2.8518
    Trans. Mom.: -0.0000 X  -0.0000 Y   0.0000 Z
    Strength   :     0.0000000000
    D(   43) --> V(    2) amplitude =  0.2869 alpha
    D(   46) --> V(    4) amplitude = -0.3117 alpha
    S(    1) --> V(    1) amplitude =  0.2080 alpha
    S(    2) --> V(   18) amplitude = -0.2511 alpha
    D(   39) --> S(    1) amplitude =  0.6812 beta
    D(   43) --> V(    1) amplitude =  0.3474 beta
    D(   45) --> V(    9) amplitude =  0.2252 beta

 Excited state  23: excitation energy (eV) =    5.8716
 Total energy for state 23:                  -539.04175862 au
    <S**2>     :  2.1254
    Trans. Mom.:  0.0000 X   0.0000 Y  -0.0000 Z
    Strength   :     0.0000000000
    S(    2) --> V(    9) amplitude =  0.7876 alpha
    D(   40) --> S(    1) amplitude =  0.5484 beta

 Excited state  24: excitation energy (eV) =    5.8907
 Total energy for state 24:                  -539.04105818 au
    <S**2>     :  2.9846
    Trans. Mom.:  0.0000 X  -0.0000 Y  -0.0000 Z
    Strength   :     0.0000000002
    D(   43) --> S(    2) amplitude = -0.4640 beta
    D(   44) --> S(    1) amplitude =  0.1712 beta
    D(   45) --> V(    2) amplitude =  0.3005 beta
    D(   46) --> V(    1) amplitude =  0.7783 beta

 Excited state  25: excitation energy (eV) =    5.9149
 Total energy for state 25:                  -539.04016626 au
    <S**2>     :  2.1425
    Trans. Mom.: -0.0000 X   0.0000 Y   0.0000 Z
    Strength   :     0.0000000000
    S(    2) --> V(    9) amplitude = -0.5616 alpha
    D(   40) --> S(    1) amplitude =  0.7764 beta
    D(   42) --> V(    1) amplitude =  0.1557 beta

 Excited state  26: excitation energy (eV) =    6.0607
 Total energy for state 26:                  -539.03480965 au
    <S**2>     :  2.9551
    Trans. Mom.: -0.0000 X   0.0000 Y   0.0000 Z
    Strength   :     0.0000000001
    D(   45) --> V(    2) amplitude =  0.4187 alpha
    D(   46) --> V(    1) amplitude =  0.7398 alpha
    S(    1) --> V(    4) amplitude =  0.4154 alpha
    D(   43) --> S(    2) amplitude = -0.1759 beta

 Excited state  27: excitation energy (eV) =    6.1948
 Total energy for state 27:                  -539.02988273 au
    <S**2>     :  2.0744
    Trans. Mom.: -0.0000 X   0.3988 Y   0.0000 Z
    Strength   :     0.0241412472
    D(   46) --> V(    2) amplitude = -0.2194 alpha
    S(    1) --> V(    3) amplitude =  0.6660 alpha
    D(   44) --> S(    2) amplitude = -0.6442 beta

 Excited state  28: excitation energy (eV) =    6.3171
 Total energy for state 28:                  -539.02538573 au
    <S**2>     :  2.0888
    Trans. Mom.: -0.0000 X   0.0000 Y   0.0354 Z
    Strength   :     0.0001937765
    S(    2) --> V(   13) amplitude =  0.9820 alpha

 Excited state  29: excitation energy (eV) =    6.3463
 Total energy for state 29:                  -539.02431415 au
    <S**2>     :  3.5855
    Trans. Mom.: -0.0185 X  -0.0000 Y   0.0000 Z
    Strength   :     0.0000531338
    D(   43) --> V(    1) amplitude = -0.2780 alpha
    D(   44) --> V(    2) amplitude = -0.1698 alpha
    D(   46) --> V(    3) amplitude =  0.6514 alpha
    D(   39) --> S(    2) amplitude = -0.1622 beta
    D(   43) --> V(    2) amplitude = -0.2080 beta
    D(   44) --> V(    1) amplitude =  0.4326 beta
    D(   45) --> V(    3) amplitude =  0.3139 beta
    D(   46) --> V(    9) amplitude =  0.2136 beta

 Excited state  30: excitation energy (eV) =    6.3922
 Total energy for state 30:                  -539.02262612 au
    <S**2>     :  2.1340
    Trans. Mom.:  0.0000 X   0.0002 Y   0.0000 Z
    Strength   :     0.0000000043
    S(    2) --> V(   11) amplitude =  0.9651 alpha

 Excited state  31: excitation energy (eV) =    6.4500
 Total energy for state 31:                  -539.02050439 au
    <S**2>     :  2.1218
    Trans. Mom.: -0.0001 X  -0.0000 Y  -0.0000 Z
    Strength   :     0.0000000005
    S(    2) --> V(   10) amplitude =  0.9675 alpha

 Excited state  32: excitation energy (eV) =    6.5229
 Total energy for state 32:                  -539.01782366 au
    <S**2>     :  3.2343
    Trans. Mom.:  0.0000 X   0.1282 Y   0.0000 Z
    Strength   :     0.0026258495
    D(   44) --> V(    3) amplitude = -0.2093 alpha
    D(   45) --> V(    1) amplitude = -0.4129 alpha
    D(   46) --> V(    2) amplitude = -0.2812 alpha
    S(    1) --> V(    3) amplitude =  0.2708 alpha
    S(    2) --> V(    4) amplitude = -0.1755 alpha
    D(   44) --> S(    2) amplitude =  0.4366 beta
    D(   44) --> V(    3) amplitude = -0.2609 beta
    D(   45) --> V(    1) amplitude =  0.2698 beta
    D(   46) --> V(    2) amplitude =  0.4854 beta

 Excited state  33: excitation energy (eV) =    6.5471
 Total energy for state 33:                  -539.01693412 au
    <S**2>     :  3.3109
    Trans. Mom.:  0.0000 X  -0.0000 Y  -0.0000 Z
    Strength   :     0.0000000004
    D(   44) --> V(    1) amplitude =  0.3329 alpha
    D(   45) --> V(    3) amplitude =  0.3788 alpha
    S(    1) --> V(    1) amplitude = -0.3279 alpha
    D(   39) --> S(    1) amplitude = -0.2560 beta
    D(   43) --> V(    1) amplitude =  0.2425 beta
    D(   44) --> V(    2) amplitude = -0.3603 beta
    D(   45) --> V(    9) amplitude =  0.1664 beta
    D(   46) --> S(    2) amplitude = -0.1856 beta
    D(   46) --> V(    3) amplitude =  0.4669 beta

 Excited state  34: excitation energy (eV) =    6.6061
 Total energy for state 34:                  -539.01476855 au
    <S**2>     :  2.2195
    Trans. Mom.: -0.0000 X  -0.0000 Y  -0.0257 Z
    Strength   :     0.0001068185
    D(   34) --> S(    1) amplitude = -0.2886 beta
    D(   38) --> S(    1) amplitude =  0.8640 beta
    D(   41) --> V(    1) amplitude = -0.2654 beta
    D(   42) --> S(    2) amplitude = -0.1896 beta

 Excited state  35: excitation energy (eV) =    6.7533
 Total energy for state 35:                  -539.00935787 au
    <S**2>     :  2.1291
    Trans. Mom.: -0.0000 X  -0.0000 Y  -0.0000 Z
    Strength   :     0.0000000000
    S(    2) --> V(    9) amplitude =  0.1559 alpha
    S(    2) --> V(   12) amplitude =  0.9454 alpha
    S(    2) --> V(   20) amplitude = -0.1596 alpha

 Excited state  36: excitation energy (eV) =    6.7810
 Total energy for state 36:                  -539.00833860 au
    <S**2>     :  2.0795
    Trans. Mom.: -0.0000 X   0.2559 Y  -0.0000 Z
    Strength   :     0.0108765054
    D(   45) --> V(    1) amplitude = -0.3653 alpha
    D(   46) --> V(    2) amplitude =  0.5454 alpha
    S(    1) --> V(    3) amplitude =  0.2402 alpha
    D(   37) --> S(    1) amplitude =  0.2385 beta
    D(   45) --> V(    1) amplitude =  0.5181 beta
    D(   46) --> V(    2) amplitude = -0.3301 beta

 Excited state  37: excitation energy (eV) =    6.9328
 Total energy for state 37:                  -539.00276203 au
    <S**2>     :  2.1238
    Trans. Mom.:  0.0000 X  -0.0000 Y  -0.0000 Z
    Strength   :     0.0000000000
    D(   35) --> S(    1) amplitude = -0.6847 beta
    D(   41) --> S(    2) amplitude =  0.6445 beta

 Excited state  38: excitation energy (eV) =    6.9446
 Total energy for state 38:                  -539.00232891 au
    <S**2>     :  2.5072
    Trans. Mom.:  0.0000 X  -0.1672 Y  -0.0000 Z
    Strength   :     0.0047549417
    D(   39) --> V(    2) amplitude = -0.1747 alpha
    D(   43) --> V(    4) amplitude =  0.1647 alpha
    D(   45) --> V(    1) amplitude =  0.1590 alpha
    S(    2) --> V(   17) amplitude =  0.2742 alpha
    D(   37) --> S(    1) amplitude =  0.7720 beta
    D(   39) --> V(    1) amplitude = -0.2479 beta
    D(   45) --> V(    1) amplitude = -0.2589 beta

 Excited state  39: excitation energy (eV) =    6.9658
 Total energy for state 39:                  -539.00154864 au
    <S**2>     :  2.8159
    Trans. Mom.:  0.0000 X   0.0000 Y  -0.0002 Z
    Strength   :     0.0000000048
    D(   43) --> V(    2) amplitude = -0.2429 alpha
    D(   46) --> V(    4) amplitude =  0.2990 alpha
    S(    2) --> V(   18) amplitude =  0.3240 alpha
    D(   39) --> S(    1) amplitude =  0.5406 beta
    D(   43) --> V(    1) amplitude = -0.3046 beta
    D(   44) --> V(    2) amplitude = -0.2719 beta
    D(   45) --> V(    9) amplitude = -0.1804 beta
    D(   46) --> V(    3) amplitude =  0.4657 beta

 Excited state  40: excitation energy (eV) =    6.9869
 Total energy for state 40:                  -539.00077133 au
    <S**2>     :  2.4426
    Trans. Mom.:  0.0000 X  -0.0000 Y  -0.0002 Z
    Strength   :     0.0000000053
    D(   45) --> V(    2) amplitude =  0.3857 alpha
    D(   43) --> S(    2) amplitude =  0.5701 beta
    D(   43) --> V(    3) amplitude = -0.1799 beta
    D(   45) --> V(    2) amplitude =  0.6017 beta
    D(   46) --> V(    1) amplitude =  0.1960 beta

 Excited state  41: excitation energy (eV) =    7.0091
 Total energy for state 41:                  -538.99995825 au
    <S**2>     :  3.5488
    Trans. Mom.: -0.7037 X  -0.0000 Y  -0.0000 Z
    Strength   :     0.0850287161
    D(   44) --> V(    2) amplitude = -0.2317 alpha
    D(   45) --> V(    4) amplitude = -0.1529 alpha
    D(   46) --> V(    3) amplitude = -0.3783 alpha
    D(   43) --> V(    2) amplitude =  0.1793 beta
    D(   44) --> V(    1) amplitude =  0.7152 beta
    D(   45) --> V(    3) amplitude = -0.3684 beta
    D(   46) --> V(    9) amplitude =  0.2277 beta

 Excited state  42: excitation energy (eV) =    7.0189
 Total energy for state 42:                  -538.99959758 au
    <S**2>     :  2.1230
    Trans. Mom.: -0.0000 X  -0.0000 Y   0.1543 Z
    Strength   :     0.0040934035
    S(    2) --> V(    8) amplitude =  0.1517 alpha
    S(    2) --> V(   14) amplitude =  0.8067 alpha
    D(   32) --> S(    1) amplitude = -0.1551 beta
    D(   34) --> S(    1) amplitude = -0.3181 beta
    D(   38) --> S(    1) amplitude = -0.1755 beta
    D(   42) --> S(    2) amplitude = -0.2927 beta

 Excited state  43: excitation energy (eV) =    7.0676
 Total energy for state 43:                  -538.99780822 au
    <S**2>     :  2.1155
    Trans. Mom.:  0.0000 X  -0.0000 Y   0.0040 Z
    Strength   :     0.0000027727
    S(    2) --> V(   14) amplitude =  0.5156 alpha
    D(   32) --> S(    1) amplitude =  0.2449 beta
    D(   34) --> S(    1) amplitude =  0.4664 beta
    D(   38) --> S(    1) amplitude =  0.3013 beta
    D(   42) --> S(    2) amplitude =  0.5115 beta

 Excited state  44: excitation energy (eV) =    7.0776
 Total energy for state 44:                  -538.99743854 au
    <S**2>     :  2.1392
    Trans. Mom.: -0.0001 X  -0.0001 Y  -0.0000 Z
    Strength   :     0.0000000042
    S(    2) --> V(   15) amplitude =  0.9796 alpha

 Excited state  45: excitation energy (eV) =    7.0899
 Total energy for state 45:                  -538.99698721 au
    <S**2>     :  2.2205
    Trans. Mom.: -0.0007 X   0.0002 Y  -0.0000 Z
    Strength   :     0.0000000835
    D(   34) --> S(    2) amplitude =  0.1780 beta
    D(   36) --> S(    1) amplitude =  0.9153 beta
    D(   40) --> V(    1) amplitude = -0.2286 beta

 Excited state  46: excitation energy (eV) =    7.3006
 Total energy for state 46:                  -538.98924560 au
    <S**2>     :  2.5002
    Trans. Mom.:  0.2681 X   0.0000 Y  -0.0000 Z
    Strength   :     0.0128537706
    D(   44) --> V(    2) amplitude =  0.3408 alpha
    D(   45) --> V(    4) amplitude =  0.3066 alpha
    D(   46) --> V(    3) amplitude =  0.5129 alpha
    S(    1) --> V(   18) amplitude = -0.1548 alpha
    D(   39) --> S(    2) amplitude =  0.2874 beta
    D(   43) --> V(    2) amplitude =  0.3524 beta
    D(   44) --> V(    1) amplitude =  0.1617 beta
    D(   45) --> V(    3) amplitude = -0.4441 beta

 Excited state  47: excitation energy (eV) =    7.3969
 Total energy for state 47:                  -538.98570382 au
    <S**2>     :  2.2832
    Trans. Mom.: -0.0002 X   0.0000 Y   0.0000 Z
    Strength   :     0.0000000042
    D(   45) --> V(    7) amplitude = -0.2827 alpha
    S(    1) --> V(    5) amplitude =  0.9234 alpha

 Excited state  48: excitation energy (eV) =    7.4434
 Total energy for state 48:                  -538.98399702 au
    <S**2>     :  2.2430
    Trans. Mom.: -0.0000 X  -0.0000 Y   0.0985 Z
    Strength   :     0.0017693024
    S(    1) --> V(    6) amplitude =  0.7367 alpha
    D(   34) --> S(    1) amplitude = -0.4333 beta
    D(   40) --> V(    2) amplitude =  0.1766 beta
    D(   42) --> S(    2) amplitude =  0.3618 beta

 Excited state  49: excitation energy (eV) =    7.4717
 Total energy for state 49:                  -538.98295697 au
    <S**2>     :  2.2671
    Trans. Mom.:  0.0000 X   0.0000 Y  -0.0591 Z
    Strength   :     0.0006395440
    S(    1) --> V(    6) amplitude =  0.5939 alpha
    D(   34) --> S(    1) amplitude =  0.4672 beta
    D(   40) --> V(    2) amplitude = -0.2208 beta
    D(   42) --> S(    2) amplitude = -0.5354 beta

 Excited state  50: excitation energy (eV) =    7.5021
 Total energy for state 50:                  -538.98184095 au
    <S**2>     :  2.3294
    Trans. Mom.: -0.0000 X   0.0000 Y  -0.0000 Z
    Strength   :     0.0000000000
    D(   45) --> V(    5) amplitude = -0.3061 alpha
    S(    1) --> V(    7) amplitude =  0.9013 alpha
    S(    2) --> V(   12) amplitude =  0.1799 alpha
 
 ---------------------------------------------------
  SETman timing summary (seconds)
  CPU time             17145.70s
  System time              0.01s
  Wall time            17228.76s
================================================================================
                             Excited State Analysis
================================================================================

  Ground State (Reference) :
  -------------------------
    NOs (alpha)
      Occupation of frontier NOs:
         0.0000   1.0000
      Number of electrons: 48.000000
    NOs (beta)
      Occupation of frontier NOs:
         0.0000   1.0000
      Number of electrons: 46.000000
    NOs (spin-traced)
      Occupation of frontier NOs:
         1.0000   1.0000
      Number of electrons: 94.000000
      Number of unpaired electrons: n_u =  2.04539, n_u,nl =  2.00083
      NO participation ratio (PR_NO):  2.091592
    
    Mulliken Population Analysis
    Atom      Charge (e)        Spin (e)
    ------------------------------------
     1 C        0.140886        0.128086
     2 C       -0.182777       -0.218130
     3 H        0.120664        0.010909
     4 C       -0.124342       -0.080867
     5 H        0.123453        0.006246
     6 C       -0.124342       -0.080869
     7 H        0.123453        0.006246
     8 C       -0.182777       -0.218129
     9 H        0.120664        0.010909
    10 C        0.140886        0.128085
    11 C       -0.273507       -0.724760
    12 H        0.117739        0.032274
    13 C       -0.273507       -0.724760
    14 H        0.117739        0.032274
    15 C        0.140886        0.128086
    16 C       -0.182777       -0.218130
    17 H        0.120664        0.010909
    18 C       -0.124342       -0.080867
    19 H        0.123453        0.006246
    20 C       -0.124342       -0.080869
    21 H        0.123453        0.006246
    22 C       -0.182777       -0.218129
    23 H        0.120664        0.010909
    24 C        0.140887        0.128085
    ------------------------------------
    Sum:        0.000000       -2.000000
    
    Multipole moment analysis of the density matrix
      Molecular charge:                      0.000000
      Number of electrons:                   94.000000
        Center of electronic charge [Ang]: [ -0.000000,  -0.000000,   0.000001]
      Total nuclear charge:                  94.000000
        Center of nuclear charge [Ang]:    [ -0.000000,  -0.000000,  -0.000000]
      Dipole moment [D]:                     0.000488
        Cartesian components [D]:          [  0.000000,   0.000000,  -0.000488]
      RMS size of the density [Ang]:         2.923548
        Cartesian components [Ang]:        [  2.596999,   1.267500,   0.442916]
    

  ----------------------------------------------------------------------------
                  Analysis of Unrelaxed Density Matrices
  ----------------------------------------------------------------------------

  Excited State 1 :
  -------------------------
    NOs (alpha)
      Occupation of frontier NOs:
         0.4400   0.5600
      Number of electrons: 48.000000
    NOs (beta)
      Occupation of frontier NOs:
         0.4737   0.5263
      Number of electrons: 46.000000
    NOs (spin-traced)
      Occupation of frontier NOs:
         0.5773   1.4700
      Number of electrons: 94.000000
      Number of unpaired electrons: n_u =  2.16605, n_u,nl =  2.31702
      NO participation ratio (PR_NO):  4.446742
    
    
    Mulliken Population Analysis
    Atom  Charge (e)    Spin (e)  h+ (alpha)   h+ (beta)  e- (alpha)   e- (beta)
    ----------------------------------------------------------------------------
     1 C    0.144862    0.104945    0.020032    0.033085   -0.029615   -0.019526
     2 C   -0.170186   -0.293228    0.034357    0.081289   -0.065610   -0.037444
     3 H    0.120375    0.010186    0.000217    0.000446   -0.000722   -0.000228
     4 C   -0.127462   -0.063150    0.024188    0.019076   -0.016889   -0.029495
     5 H    0.123398    0.006390    0.000198    0.000098   -0.000154   -0.000197
     6 C   -0.127462   -0.063152    0.024188    0.019076   -0.016889   -0.029495
     7 H    0.123398    0.006391    0.000198    0.000098   -0.000154   -0.000197
     8 C   -0.170186   -0.293227    0.034357    0.081289   -0.065610   -0.037444
     9 H    0.120375    0.010186    0.000217    0.000446   -0.000722   -0.000228
    10 C    0.144862    0.104944    0.020033    0.033085   -0.029615   -0.019527
    11 C   -0.299675   -0.563691    0.070018    0.003439   -0.002568   -0.097058
    12 H    0.117701    0.033406    0.000566    0.000007   -0.000019   -0.000592
    13 C   -0.299675   -0.563691    0.070018    0.003439   -0.002568   -0.097058
    14 H    0.117701    0.033406    0.000566    0.000007   -0.000019   -0.000592
    15 C    0.144862    0.104945    0.020032    0.033085   -0.029615   -0.019527
    16 C   -0.170186   -0.293228    0.034357    0.081289   -0.065610   -0.037444
    17 H    0.120375    0.010186    0.000217    0.000446   -0.000722   -0.000228
    18 C   -0.127462   -0.063150    0.024188    0.019076   -0.016889   -0.029495
    19 H    0.123398    0.006390    0.000198    0.000098   -0.000154   -0.000197
    20 C   -0.127462   -0.063152    0.024188    0.019076   -0.016889   -0.029495
    21 H    0.123398    0.006391    0.000198    0.000098   -0.000154   -0.000197
    22 C   -0.170187   -0.293227    0.034357    0.081289   -0.065610   -0.037444
    23 H    0.120375    0.010186    0.000217    0.000446   -0.000722   -0.000228
    24 C    0.144862    0.104944    0.020033    0.033085   -0.029615   -0.019527
    ----------------------------------------------------------------------------
    Sum:    0.000000   -2.000000    0.457137    0.542863   -0.457137   -0.542863
    
    Multipole moment analysis of the density matrix
      Molecular charge:                      0.000000
      Number of electrons:                   94.000000
        Center of electronic charge [Ang]: [ -0.000000,   0.000000,   0.000001]
      Total nuclear charge:                  94.000000
        Center of nuclear charge [Ang]:    [ -0.000000,  -0.000000,  -0.000000]
      Dipole moment [D]:                     0.000484
        Cartesian components [D]:          [  0.000000,  -0.000000,  -0.000484]
      RMS size of the density [Ang]:         2.923754
        Cartesian components [Ang]:        [  2.596911,   1.268059,   0.443188]
    
    Exciton analysis of the difference density matrix
    Total:
      <r_h> [Ang]:                  [ -0.000000,  -0.000000,   0.000025]
      <r_e> [Ang]:                  [ -0.000000,  -0.000000,   0.000024]
      |<r_e - r_h>| [Ang]:            0.000001
      Hole size [Ang]:                2.866669
        Cartesian components [Ang]: [  2.425823,   1.299316,   0.803088]
      Electron size [Ang]:            2.886364
        Cartesian components [Ang]: [  2.417021,   1.349625,   0.817077]
    
    Alpha spin:
      <r_h> [Ang]:                  [ -0.000000,  -0.000000,  -0.000017]
      <r_e> [Ang]:                  [ -0.000000,  -0.000000,   0.000074]
      |<r_e - r_h>| [Ang]:            0.000092
      Hole size [Ang]:                2.807637
        Cartesian components [Ang]: [  2.383195,   1.258123,   0.787615]
      Electron size [Ang]:            3.012528
        Cartesian components [Ang]: [  2.573267,   1.337989,   0.814498]
    
    Beta spin:
      <r_h> [Ang]:                  [ -0.000000,  -0.000000,   0.000061]
      <r_e> [Ang]:                  [ -0.000000,  -0.000000,  -0.000018]
      |<r_e - r_h>| [Ang]:            0.000079
      Hole size [Ang]:                2.915451
        Cartesian components [Ang]: [  2.461147,   1.333017,   0.815889]
      Electron size [Ang]:            2.775678
        Cartesian components [Ang]: [  2.277149,   1.359346,   0.819243]

  Excited State 2 :
  -------------------------
    NOs (alpha)
      Occupation of frontier NOs:
         0.4768   0.5232
      Number of electrons: 48.000000
    NOs (beta)
      Occupation of frontier NOs:
         0.4641   0.5359
      Number of electrons: 46.000000
    NOs (spin-traced)
      Occupation of frontier NOs:
         0.5536   1.4378
      Number of electrons: 94.000000
      Number of unpaired electrons: n_u =  2.25393, n_u,nl =  2.40741
      NO participation ratio (PR_NO):  4.586700
    
    
    Mulliken Population Analysis
    Atom  Charge (e)    Spin (e)  h+ (alpha)   h+ (beta)  e- (alpha)   e- (beta)
    ----------------------------------------------------------------------------
     1 C    0.146928    0.052060    0.020224    0.058585   -0.055216   -0.017552
     2 C   -0.183645   -0.171007    0.030381    0.004980   -0.007253   -0.028975
     3 H    0.120677    0.011249    0.000194    0.000010   -0.000017   -0.000174
     4 C   -0.123216   -0.121619    0.039685    0.057766   -0.059498   -0.036827
     5 H    0.123184    0.005876    0.000286    0.000320   -0.000605   -0.000269
     6 C   -0.123216   -0.121620    0.039685    0.057765   -0.059498   -0.036827
     7 H    0.123184    0.005877    0.000286    0.000320   -0.000605   -0.000269
     8 C   -0.183644   -0.171005    0.030381    0.004980   -0.007253   -0.028975
     9 H    0.120677    0.011249    0.000194    0.000010   -0.000017   -0.000174
    10 C    0.146928    0.052058    0.020224    0.058586   -0.055217   -0.017552
    11 C   -0.285697   -0.586418    0.070528    0.004027   -0.007452   -0.079293
    12 H    0.117840    0.033300    0.000578    0.000008   -0.000014   -0.000470
    13 C   -0.285697   -0.586418    0.070528    0.004027   -0.007452   -0.079294
    14 H    0.117840    0.033300    0.000578    0.000008   -0.000014   -0.000470
    15 C    0.146928    0.052060    0.020224    0.058585   -0.055217   -0.017552
    16 C   -0.183644   -0.171007    0.030381    0.004980   -0.007253   -0.028975
    17 H    0.120677    0.011249    0.000194    0.000010   -0.000017   -0.000174
    18 C   -0.123216   -0.121619    0.039685    0.057766   -0.059498   -0.036827
    19 H    0.123184    0.005876    0.000286    0.000320   -0.000605   -0.000269
    20 C   -0.123216   -0.121620    0.039685    0.057766   -0.059498   -0.036827
    21 H    0.123184    0.005877    0.000286    0.000320   -0.000605   -0.000269
    22 C   -0.183645   -0.171005    0.030381    0.004980   -0.007253   -0.028975
    23 H    0.120677    0.011249    0.000194    0.000010   -0.000017   -0.000174
    24 C    0.146928    0.052058    0.020224    0.058586   -0.055217   -0.017552
    ----------------------------------------------------------------------------
    Sum:    0.000000   -2.000000    0.505288    0.494712   -0.505288   -0.494712
    
    Multipole moment analysis of the density matrix
      Molecular charge:                      0.000000
      Number of electrons:                   94.000000
        Center of electronic charge [Ang]: [  0.000000,   0.000000,   0.000001]
      Total nuclear charge:                  94.000000
        Center of nuclear charge [Ang]:    [ -0.000000,  -0.000000,  -0.000000]
      Dipole moment [D]:                     0.000513
        Cartesian components [D]:          [ -0.000000,  -0.000000,  -0.000513]
      RMS size of the density [Ang]:         2.923980
        Cartesian components [Ang]:        [  2.596613,   1.269113,   0.443406]
    
    Exciton analysis of the difference density matrix
    Total:
      <r_h> [Ang]:                  [ -0.000000,   0.000000,   0.000012]
      <r_e> [Ang]:                  [ -0.000000,   0.000000,   0.000017]
      |<r_e - r_h>| [Ang]:            0.000005
      Hole size [Ang]:                2.986072
        Cartesian components [Ang]: [  2.689672,   1.027827,   0.791114]
      Electron size [Ang]:            3.025547
        Cartesian components [Ang]: [  2.654460,   1.200478,   0.816475]
    
    Alpha spin:
      <r_h> [Ang]:                  [ -0.000000,   0.000000,  -0.000011]
      <r_e> [Ang]:                  [ -0.000000,   0.000000,   0.000046]
      |<r_e - r_h>| [Ang]:            0.000057
      Hole size [Ang]:                2.957613
        Cartesian components [Ang]: [  2.583229,   1.205114,   0.788734]
      Electron size [Ang]:            3.140029
        Cartesian components [Ang]: [  2.834755,   1.075671,   0.816627]
    
    Beta spin:
      <r_h> [Ang]:                  [ -0.000000,   0.000000,   0.000035]
      <r_e> [Ang]:                  [ -0.000000,   0.000000,  -0.000012]
      |<r_e - r_h>| [Ang]:            0.000048
      Hole size [Ang]:                3.014863
        Cartesian components [Ang]: [  2.794208,   0.807524,   0.793538]
      Electron size [Ang]:            2.903963
        Cartesian components [Ang]: [  2.456689,   1.315789,   0.816319]

  Excited State 3 :
  -------------------------
    NOs (alpha)
      Occupation of frontier NOs:
         0.4882   0.5118
      Number of electrons: 48.000000
    NOs (beta)
      Occupation of frontier NOs:
         0.4890   0.5110
      Number of electrons: 46.000000
    NOs (spin-traced)
      Occupation of frontier NOs:
         0.5284   1.4770
      Number of electrons: 94.000000
      Number of unpaired electrons: n_u =  2.11402, n_u,nl =  2.30438
      NO participation ratio (PR_NO):  4.309308
    
    
    Mulliken Population Analysis
    Atom  Charge (e)    Spin (e)  h+ (alpha)   h+ (beta)  e- (alpha)   e- (beta)
    ----------------------------------------------------------------------------
     1 C    0.151166    0.028316    0.015935    0.069577   -0.060680   -0.014552
     2 C   -0.182742   -0.161387    0.035894    0.005782   -0.007504   -0.034136
     3 H    0.120679    0.011313    0.000223    0.000015   -0.000014   -0.000209
     4 C   -0.127568   -0.132487    0.023407    0.048324   -0.050830   -0.024127
     5 H    0.123235    0.005810    0.000226    0.000310   -0.000554   -0.000200
     6 C   -0.127568   -0.132488    0.023407    0.048324   -0.050829   -0.024127
     7 H    0.123235    0.005810    0.000226    0.000310   -0.000554   -0.000200
     8 C   -0.182742   -0.161385    0.035894    0.005782   -0.007504   -0.034136
     9 H    0.120679    0.011313    0.000223    0.000015   -0.000014   -0.000209
    10 C    0.151166    0.028315    0.015935    0.069577   -0.060680   -0.014552
    11 C   -0.287358   -0.536760    0.096210    0.003680   -0.009136   -0.104605
    12 H    0.117817    0.033630    0.000720    0.000004   -0.000003   -0.000643
    13 C   -0.287358   -0.536760    0.096210    0.003680   -0.009136   -0.104605
    14 H    0.117817    0.033630    0.000720    0.000004   -0.000003   -0.000643
    15 C    0.151166    0.028316    0.015935    0.069577   -0.060680   -0.014552
    16 C   -0.182742   -0.161387    0.035894    0.005782   -0.007504   -0.034136
    17 H    0.120679    0.011313    0.000223    0.000015   -0.000014   -0.000209
    18 C   -0.127568   -0.132487    0.023407    0.048324   -0.050830   -0.024127
    19 H    0.123235    0.005810    0.000226    0.000310   -0.000554   -0.000200
    20 C   -0.127568   -0.132488    0.023407    0.048324   -0.050829   -0.024127
    21 H    0.123235    0.005810    0.000226    0.000310   -0.000554   -0.000200
    22 C   -0.182742   -0.161385    0.035894    0.005782   -0.007504   -0.034136
    23 H    0.120679    0.011313    0.000223    0.000015   -0.000014   -0.000209
    24 C    0.151166    0.028315    0.015935    0.069577   -0.060680   -0.014552
    ----------------------------------------------------------------------------
    Sum:    0.000000   -2.000000    0.496603    0.503397   -0.496603   -0.503397
    
    Multipole moment analysis of the density matrix
      Molecular charge:                      0.000000
      Number of electrons:                   94.000000
        Center of electronic charge [Ang]: [ -0.000000,   0.000000,   0.000001]
      Total nuclear charge:                  94.000000
        Center of nuclear charge [Ang]:    [ -0.000000,  -0.000000,  -0.000000]
      Dipole moment [D]:                     0.000525
        Cartesian components [D]:          [  0.000000,  -0.000000,  -0.000525]
      RMS size of the density [Ang]:         2.924402
        Cartesian components [Ang]:        [  2.597018,   1.269134,   0.443758]
    
    Exciton analysis of the difference density matrix
    Total:
      <r_h> [Ang]:                  [ -0.000000,  -0.000000,  -0.000003]
      <r_e> [Ang]:                  [ -0.000000,   0.000000,   0.000005]
      |<r_e - r_h>| [Ang]:            0.000008
      Hole size [Ang]:                2.799868
        Cartesian components [Ang]: [  2.458977,   1.082439,   0.788047]
      Electron size [Ang]:            2.882471
        Cartesian components [Ang]: [  2.460928,   1.249519,   0.831368]
    
    Alpha spin:
      <r_h> [Ang]:                  [ -0.000000,  -0.000000,  -0.000037]
      <r_e> [Ang]:                  [  0.000000,  -0.000000,   0.000042]
      |<r_e - r_h>| [Ang]:            0.000080
      Hole size [Ang]:                2.746422
        Cartesian components [Ang]: [  2.287720,   1.299929,   0.786991]
      Electron size [Ang]:            3.038651
        Cartesian components [Ang]: [  2.709369,   1.094082,   0.834089]
    
    Beta spin:
      <r_h> [Ang]:                  [  0.000000,  -0.000000,   0.000031]
      <r_e> [Ang]:                  [ -0.000000,   0.000000,  -0.000032]
      |<r_e - r_h>| [Ang]:            0.000063
      Hole size [Ang]:                2.851611
        Cartesian components [Ang]: [  2.616964,   0.812727,   0.789087]
      Electron size [Ang]:            2.719624
        Cartesian components [Ang]: [  2.188375,   1.385880,   0.828676]

  Excited State 4 :
  -------------------------
    NOs (alpha)
      Occupation of frontier NOs:
         0.4237   0.5763
      Number of electrons: 48.000000
    NOs (beta)
      Occupation of frontier NOs:
         0.3621   0.6379
      Number of electrons: 46.000000
    NOs (spin-traced)
      Occupation of frontier NOs:
         0.5798   1.3503
      Number of electrons: 94.000000
      Number of unpaired electrons: n_u =  2.20212, n_u,nl =  2.29308
      NO participation ratio (PR_NO):  4.448263
    
    
    Mulliken Population Analysis
    Atom  Charge (e)    Spin (e)  h+ (alpha)   h+ (beta)  e- (alpha)   e- (beta)
    ----------------------------------------------------------------------------
     1 C    0.130447    0.085968    0.024823    0.030836   -0.051101   -0.014997
     2 C   -0.183881   -0.247880    0.043588    0.041405   -0.059014   -0.027082
     3 H    0.120197    0.010358    0.000269    0.000216   -0.000777   -0.000174
     4 C   -0.116517   -0.048194    0.030967    0.007339   -0.010718   -0.019763
     5 H    0.123523    0.006506    0.000250    0.000037   -0.000086   -0.000133
     6 C   -0.116517   -0.048197    0.030967    0.007339   -0.010719   -0.019763
     7 H    0.123523    0.006506    0.000250    0.000037   -0.000086   -0.000133
     8 C   -0.183881   -0.247879    0.043588    0.041405   -0.059015   -0.027082
     9 H    0.120197    0.010358    0.000269    0.000216   -0.000777   -0.000174
    10 C    0.130448    0.085968    0.024823    0.030836   -0.051101   -0.014997
    11 C   -0.264876   -0.645889    0.103049    0.036491   -0.059298   -0.071611
    12 H    0.117337    0.032375    0.000804    0.000196   -0.000954   -0.000447
    13 C   -0.264876   -0.645889    0.103049    0.036491   -0.059298   -0.071611
    14 H    0.117337    0.032375    0.000804    0.000196   -0.000954   -0.000447
    15 C    0.130447    0.085968    0.024823    0.030836   -0.051101   -0.014997
    16 C   -0.183881   -0.247880    0.043588    0.041405   -0.059014   -0.027082
    17 H    0.120197    0.010358    0.000269    0.000216   -0.000777   -0.000174
    18 C   -0.116517   -0.048195    0.030967    0.007339   -0.010718   -0.019763
    19 H    0.123523    0.006506    0.000250    0.000037   -0.000086   -0.000133
    20 C   -0.116517   -0.048197    0.030967    0.007339   -0.010719   -0.019763
    21 H    0.123523    0.006506    0.000250    0.000037   -0.000086   -0.000133
    22 C   -0.183881   -0.247879    0.043588    0.041405   -0.059014   -0.027082
    23 H    0.120197    0.010358    0.000269    0.000216   -0.000777   -0.000174
    24 C    0.130448    0.085968    0.024823    0.030836   -0.051101   -0.014997
    ----------------------------------------------------------------------------
    Sum:    0.000000   -2.000000    0.607292    0.392708   -0.607292   -0.392708
    
    Multipole moment analysis of the density matrix
      Molecular charge:                      0.000000
      Number of electrons:                   94.000000
        Center of electronic charge [Ang]: [  0.000000,   0.000000,   0.000001]
      Total nuclear charge:                  94.000000
        Center of nuclear charge [Ang]:    [ -0.000000,  -0.000000,  -0.000000]
      Dipole moment [D]:                     0.000580
        Cartesian components [D]:          [ -0.000000,  -0.000000,  -0.000580]
      RMS size of the density [Ang]:         2.923744
        Cartesian components [Ang]:        [  2.596229,   1.269105,   0.444123]
    
    Exciton analysis of the difference density matrix
    Total:
      <r_h> [Ang]:                  [  0.000000,   0.000000,  -0.000013]
      <r_e> [Ang]:                  [  0.000000,   0.000000,   0.000006]
      |<r_e - r_h>| [Ang]:            0.000019
      Hole size [Ang]:                2.688865
        Cartesian components [Ang]: [  2.218490,   1.291081,   0.800879]
      Electron size [Ang]:            2.708802
        Cartesian components [Ang]: [  2.132098,   1.431682,   0.861426]
    
    Alpha spin:
      <r_h> [Ang]:                  [ -0.000000,   0.000000,  -0.000026]
      <r_e> [Ang]:                  [  0.000000,   0.000000,   0.000026]
      |<r_e - r_h>| [Ang]:            0.000052
      Hole size [Ang]:                2.775408
        Cartesian components [Ang]: [  2.339266,   1.268956,   0.787703]
      Electron size [Ang]:            2.690292
        Cartesian components [Ang]: [  2.063509,   1.476945,   0.893440]
    
    Beta spin:
      <r_h> [Ang]:                  [  0.000001,   0.000000,   0.000008]
      <r_e> [Ang]:                  [  0.000000,   0.000000,  -0.000024]
      |<r_e - r_h>| [Ang]:            0.000033
      Hole size [Ang]:                2.549255
        Cartesian components [Ang]: [  2.017534,   1.324568,   0.820839]
      Electron size [Ang]:            2.737181
        Cartesian components [Ang]: [  2.234023,   1.358721,   0.809431]

  Excited State 5 :
  -------------------------
    NOs (alpha)
      Occupation of frontier NOs:
         0.4805   0.5195
      Number of electrons: 48.000000
    NOs (beta)
      Occupation of frontier NOs:
         0.4006   0.5994
      Number of electrons: 46.000000
    NOs (spin-traced)
      Occupation of frontier NOs:
         0.5796   1.3528
      Number of electrons: 94.000000
      Number of unpaired electrons: n_u =  2.33616, n_u,nl =  2.43531
      NO participation ratio (PR_NO):  4.684591
    
    
    Mulliken Population Analysis
    Atom  Charge (e)    Spin (e)  h+ (alpha)   h+ (beta)  e- (alpha)   e- (beta)
    ----------------------------------------------------------------------------
     1 C    0.140879    0.093436    0.017330    0.031075   -0.034658   -0.013754
     2 C   -0.188956   -0.284652    0.036128    0.061989   -0.072479   -0.031818
     3 H    0.119932    0.010239    0.000395    0.000506   -0.001095   -0.000537
     4 C   -0.120538   -0.061173    0.035095    0.021501   -0.023346   -0.029446
     5 H    0.123217    0.006383    0.000308    0.000169   -0.000358   -0.000356
     6 C   -0.120538   -0.061175    0.035095    0.021501   -0.023346   -0.029446
     7 H    0.123217    0.006383    0.000308    0.000169   -0.000358   -0.000356
     8 C   -0.188956   -0.284651    0.036128    0.061989   -0.072479   -0.031818
     9 H    0.119932    0.010239    0.000395    0.000506   -0.001095   -0.000537
    10 C    0.140879    0.093435    0.017330    0.031075   -0.034658   -0.013754
    11 C   -0.266905   -0.561879    0.087443    0.002808   -0.002702   -0.080948
    12 H    0.117838    0.033417    0.000707    0.000049   -0.000086   -0.000571
    13 C   -0.266906   -0.561879    0.087443    0.002808   -0.002702   -0.080948
    14 H    0.117838    0.033417    0.000707    0.000049   -0.000086   -0.000571
    15 C    0.140879    0.093436    0.017330    0.031075   -0.034658   -0.013754
    16 C   -0.188956   -0.284652    0.036128    0.061989   -0.072479   -0.031818
    17 H    0.119932    0.010239    0.000395    0.000506   -0.001095   -0.000537
    18 C   -0.120538   -0.061174    0.035095    0.021501   -0.023346   -0.029446
    19 H    0.123217    0.006383    0.000308    0.000169   -0.000358   -0.000356
    20 C   -0.120538   -0.061175    0.035095    0.021501   -0.023346   -0.029446
    21 H    0.123217    0.006383    0.000308    0.000169   -0.000358   -0.000356
    22 C   -0.188957   -0.284651    0.036128    0.061989   -0.072479   -0.031818
    23 H    0.119932    0.010239    0.000395    0.000506   -0.001095   -0.000537
    24 C    0.140879    0.093435    0.017330    0.031075   -0.034658   -0.013754
    ----------------------------------------------------------------------------
    Sum:    0.000000   -2.000000    0.533323    0.466677   -0.533323   -0.466677
    
    Multipole moment analysis of the density matrix
      Molecular charge:                      0.000000
      Number of electrons:                   94.000000
        Center of electronic charge [Ang]: [ -0.000000,   0.000000,   0.000001]
      Total nuclear charge:                  94.000000
        Center of nuclear charge [Ang]:    [ -0.000000,  -0.000000,  -0.000000]
      Dipole moment [D]:                     0.000563
        Cartesian components [D]:          [  0.000000,  -0.000000,  -0.000563]
      RMS size of the density [Ang]:         2.924342
        Cartesian components [Ang]:        [  2.597249,   1.268477,   0.443889]
    
    Exciton analysis of the difference density matrix
    Total:
      <r_h> [Ang]:                  [  0.000000,  -0.000000,   0.000014]
      <r_e> [Ang]:                  [  0.000000,   0.000000,   0.000029]
      |<r_e - r_h>| [Ang]:            0.000015
      Hole size [Ang]:                2.911495
        Cartesian components [Ang]: [  2.494104,   1.272967,   0.797372]
      Electron size [Ang]:            2.985499
        Cartesian components [Ang]: [  2.518513,   1.361410,   0.846674]
    
    Alpha spin:
      <r_h> [Ang]:                  [ -0.000000,  -0.000000,  -0.000023]
      <r_e> [Ang]:                  [  0.000000,  -0.000000,   0.000070]
      |<r_e - r_h>| [Ang]:            0.000093
      Hole size [Ang]:                2.885830
        Cartesian components [Ang]: [  2.473070,   1.262675,   0.785870]
      Electron size [Ang]:            3.074616
        Cartesian components [Ang]: [  2.623926,   1.357831,   0.851219]
    
    Beta spin:
      <r_h> [Ang]:                  [  0.000000,   0.000000,   0.000055]
      <r_e> [Ang]:                  [ -0.000000,   0.000000,  -0.000017]
      |<r_e - r_h>| [Ang]:            0.000073
      Hole size [Ang]:                2.940551
        Cartesian components [Ang]: [  2.517926,   1.284629,   0.810317]
      Electron size [Ang]:            2.880281
        Cartesian components [Ang]: [  2.392366,   1.365490,   0.841450]

  Excited State 6 :
  -------------------------
    NOs (alpha)
      Occupation of frontier NOs:
         0.2859   0.7141
      Number of electrons: 48.000000
    NOs (beta)
      Occupation of frontier NOs:
         0.4949   0.5051
      Number of electrons: 46.000000
    NOs (spin-traced)
      Occupation of frontier NOs:
         0.7478   1.4586
      Number of electrons: 94.000000
      Number of unpaired electrons: n_u =  2.58114, n_u,nl =  2.60135
      NO participation ratio (PR_NO):  5.158077
    
    
    Mulliken Population Analysis
    Atom  Charge (e)    Spin (e)  h+ (alpha)   h+ (beta)  e- (alpha)   e- (beta)
    ----------------------------------------------------------------------------
     1 C    0.149661    0.113827    0.019976    0.036375   -0.022718   -0.024858
     2 C   -0.194036   -0.193291    0.015703    0.011119   -0.008913   -0.029168
     3 H    0.120575    0.011083    0.000105    0.000036   -0.000062   -0.000167
     4 C   -0.106934   -0.130949    0.042992    0.088546   -0.059329   -0.054802
     5 H    0.123061    0.005835    0.000287    0.000435   -0.000689   -0.000425
     6 C   -0.106935   -0.130950    0.042992    0.088546   -0.059329   -0.054802
     7 H    0.123061    0.005835    0.000287    0.000435   -0.000689   -0.000425
     8 C   -0.194036   -0.193290    0.015703    0.011119   -0.008913   -0.029168
     9 H    0.120575    0.011082    0.000105    0.000036   -0.000062   -0.000167
    10 C    0.149661    0.113826    0.019976    0.036375   -0.022718   -0.024859
    11 C   -0.302150   -0.645802    0.039902    0.028514   -0.014745   -0.082315
    12 H    0.117499    0.032793    0.000333    0.000104   -0.000194   -0.000484
    13 C   -0.302150   -0.645802    0.039902    0.028514   -0.014745   -0.082315
    14 H    0.117499    0.032793    0.000333    0.000104   -0.000194   -0.000484
    15 C    0.149661    0.113827    0.019976    0.036375   -0.022718   -0.024858
    16 C   -0.194036   -0.193291    0.015703    0.011119   -0.008913   -0.029168
    17 H    0.120575    0.011083    0.000105    0.000036   -0.000062   -0.000167
    18 C   -0.106935   -0.130949    0.042992    0.088546   -0.059329   -0.054802
    19 H    0.123061    0.005835    0.000287    0.000435   -0.000689   -0.000425
    20 C   -0.106935   -0.130950    0.042992    0.088546   -0.059329   -0.054802
    21 H    0.123061    0.005835    0.000287    0.000435   -0.000689   -0.000425
    22 C   -0.194036   -0.193290    0.015703    0.011119   -0.008913   -0.029168
    23 H    0.120575    0.011082    0.000105    0.000036   -0.000062   -0.000167
    24 C    0.149661    0.113826    0.019976    0.036375   -0.022718   -0.024859
    ----------------------------------------------------------------------------
    Sum:    0.000000   -2.000000    0.396719    0.603281   -0.396719   -0.603281
    
    Multipole moment analysis of the density matrix
      Molecular charge:                      0.000000
      Number of electrons:                   94.000000
        Center of electronic charge [Ang]: [ -0.000000,   0.000000,   0.000001]
      Total nuclear charge:                  94.000000
        Center of nuclear charge [Ang]:    [ -0.000000,  -0.000000,  -0.000000]
      Dipole moment [D]:                     0.000461
        Cartesian components [D]:          [  0.000000,  -0.000000,  -0.000461]
      RMS size of the density [Ang]:         2.923260
        Cartesian components [Ang]:        [  2.595618,   1.269664,   0.442913]
    
    Exciton analysis of the difference density matrix
    Total:
      <r_h> [Ang]:                  [  0.000000,  -0.000000,   0.000023]
      <r_e> [Ang]:                  [  0.000000,  -0.000000,   0.000017]
      |<r_e - r_h>| [Ang]:            0.000006
      Hole size [Ang]:                3.196613
        Cartesian components [Ang]: [  2.933320,   0.981004,   0.807217]
      Electron size [Ang]:            3.171811
        Cartesian components [Ang]: [  2.816111,   1.215955,   0.807067]
    
    Alpha spin:
      <r_h> [Ang]:                  [  0.000000,  -0.000000,   0.000007]
      <r_e> [Ang]:                  [  0.000000,  -0.000000,   0.000048]
      |<r_e - r_h>| [Ang]:            0.000041
      Hole size [Ang]:                3.100801
        Cartesian components [Ang]: [  2.792953,   1.091104,   0.789855]
      Electron size [Ang]:            3.416651
        Cartesian components [Ang]: [  3.124599,   1.127238,   0.799822]
    
    Beta spin:
      <r_h> [Ang]:                  [  0.000000,  -0.000000,   0.000034]
      <r_e> [Ang]:                  [ -0.000000,   0.000000,  -0.000003]
      |<r_e - r_h>| [Ang]:            0.000037
      Hole size [Ang]:                3.258085
        Cartesian components [Ang]: [  3.022075,   0.901301,   0.818434]
      Electron size [Ang]:            2.999933
        Cartesian components [Ang]: [  2.593325,   1.270925,   0.811797]

  Excited State 7 :
  -------------------------
    NOs (alpha)
      Occupation of frontier NOs:
         0.3666   0.6334
      Number of electrons: 48.000000
    NOs (beta)
      Occupation of frontier NOs:
         0.4499   0.5501
      Number of electrons: 46.000000
    NOs (spin-traced)
      Occupation of frontier NOs:
         0.6545   1.4452
      Number of electrons: 94.000000
      Number of unpaired electrons: n_u =  2.25444, n_u,nl =  2.33099
      NO participation ratio (PR_NO):  4.590313
    
    
    Mulliken Population Analysis
    Atom  Charge (e)    Spin (e)  h+ (alpha)   h+ (beta)  e- (alpha)   e- (beta)
    ----------------------------------------------------------------------------
     1 C    0.152003    0.083972    0.013569    0.045565   -0.030067   -0.017949
     2 C   -0.172397   -0.246934    0.029437    0.058939   -0.038649   -0.039347
     3 H    0.120325    0.010547    0.000297    0.000399   -0.000647   -0.000388
     4 C   -0.129689   -0.045459    0.024468    0.014112   -0.009437   -0.034490
     5 H    0.123357    0.006513    0.000192    0.000077   -0.000107   -0.000259
     6 C   -0.129689   -0.045461    0.024468    0.014112   -0.009437   -0.034490
     7 H    0.123357    0.006513    0.000192    0.000077   -0.000107   -0.000259
     8 C   -0.172397   -0.246933    0.029437    0.058939   -0.038649   -0.039347
     9 H    0.120325    0.010547    0.000297    0.000399   -0.000647   -0.000388
    10 C    0.152003    0.083971    0.013569    0.045565   -0.030067   -0.017950
    11 C   -0.303779   -0.649842    0.068893    0.055709   -0.046571   -0.108304
    12 H    0.116583    0.032565    0.000765    0.000523   -0.001198   -0.001247
    13 C   -0.303779   -0.649842    0.068893    0.055709   -0.046571   -0.108304
    14 H    0.116583    0.032565    0.000765    0.000523   -0.001198   -0.001247
    15 C    0.152003    0.083972    0.013569    0.045565   -0.030067   -0.017949
    16 C   -0.172397   -0.246934    0.029437    0.058939   -0.038649   -0.039347
    17 H    0.120325    0.010547    0.000297    0.000399   -0.000647   -0.000388
    18 C   -0.129689   -0.045459    0.024468    0.014112   -0.009437   -0.034490
    19 H    0.123357    0.006513    0.000192    0.000077   -0.000107   -0.000259
    20 C   -0.129689   -0.045461    0.024468    0.014112   -0.009437   -0.034490
    21 H    0.123357    0.006513    0.000192    0.000077   -0.000107   -0.000259
    22 C   -0.172397   -0.246933    0.029437    0.058939   -0.038649   -0.039347
    23 H    0.120325    0.010547    0.000297    0.000399   -0.000647   -0.000388
    24 C    0.152003    0.083971    0.013569    0.045565   -0.030067   -0.017950
    ----------------------------------------------------------------------------
    Sum:    0.000000   -2.000000    0.411165    0.588835   -0.411165   -0.588835
    
    Multipole moment analysis of the density matrix
      Molecular charge:                      0.000000
      Number of electrons:                   94.000000
        Center of electronic charge [Ang]: [ -0.000000,   0.000000,   0.000001]
      Total nuclear charge:                  94.000000
        Center of nuclear charge [Ang]:    [ -0.000000,  -0.000000,  -0.000000]
      Dipole moment [D]:                     0.000479
        Cartesian components [D]:          [  0.000000,  -0.000000,  -0.000479]
      RMS size of the density [Ang]:         2.924761
        Cartesian components [Ang]:        [  2.597134,   1.269365,   0.444786]
    
    Exciton analysis of the difference density matrix
    Total:
      <r_h> [Ang]:                  [ -0.000000,   0.000000,  -0.000008]
      <r_e> [Ang]:                  [ -0.000000,   0.000000,  -0.000010]
      |<r_e - r_h>| [Ang]:            0.000002
      Hole size [Ang]:                2.689866
        Cartesian components [Ang]: [  2.213198,   1.299916,   0.804584]
      Electron size [Ang]:            2.811111
        Cartesian components [Ang]: [  2.228095,   1.461025,   0.896294]
    
    Alpha spin:
      <r_h> [Ang]:                  [ -0.000000,  -0.000000,  -0.000027]
      <r_e> [Ang]:                  [ -0.000000,   0.000000,   0.000005]
      |<r_e - r_h>| [Ang]:            0.000032
      Hole size [Ang]:                2.845897
        Cartesian components [Ang]: [  2.418139,   1.279115,   0.784602]
      Electron size [Ang]:            2.796882
        Cartesian components [Ang]: [  2.092236,   1.577975,   0.977286]
    
    Beta spin:
      <r_h> [Ang]:                  [ -0.000000,   0.000000,   0.000005]
      <r_e> [Ang]:                  [ -0.000000,   0.000000,  -0.000021]
      |<r_e - r_h>| [Ang]:            0.000025
      Hole size [Ang]:                2.575316
        Cartesian components [Ang]: [  2.058028,   1.314246,   0.818248]
      Electron size [Ang]:            2.821005
        Cartesian components [Ang]: [  2.318245,   1.373470,   0.835095]

  Excited State 8 :
  -------------------------
    NOs (alpha)
      Occupation of frontier NOs:
         0.3281   0.6719
      Number of electrons: 48.000000
    NOs (beta)
      Occupation of frontier NOs:
         0.4998   0.5002
      Number of electrons: 46.000000
    NOs (spin-traced)
      Occupation of frontier NOs:
         0.7579   1.4370
      Number of electrons: 94.000000
      Number of unpaired electrons: n_u =  2.57172, n_u,nl =  2.65977
      NO participation ratio (PR_NO):  4.815751
    
    
    Mulliken Population Analysis
    Atom  Charge (e)    Spin (e)  h+ (alpha)   h+ (beta)  e- (alpha)   e- (beta)
    ----------------------------------------------------------------------------
     1 C    0.144060    0.085364    0.005751    0.034069   -0.025525   -0.011122
     2 C   -0.172657   -0.221935    0.057963    0.083454   -0.054805   -0.076492
     3 H    0.120220    0.010810    0.000345    0.000460   -0.000617   -0.000633
     4 C   -0.123200   -0.076456    0.019409    0.027410   -0.016633   -0.029044
     5 H    0.123283    0.006322    0.000109    0.000132   -0.000156   -0.000255
     6 C   -0.123200   -0.076458    0.019409    0.027410   -0.016632   -0.029044
     7 H    0.123283    0.006322    0.000109    0.000132   -0.000156   -0.000255
     8 C   -0.172657   -0.221934    0.057963    0.083454   -0.054805   -0.076492
     9 H    0.120220    0.010810    0.000345    0.000460   -0.000617   -0.000633
    10 C    0.144060    0.085363    0.005751    0.034069   -0.025525   -0.011122
    11 C   -0.300945   -0.640968    0.034204    0.007344   -0.006027   -0.062959
    12 H    0.117534    0.032760    0.000222    0.000026   -0.000082   -0.000371
    13 C   -0.300945   -0.640968    0.034204    0.007344   -0.006027   -0.062959
    14 H    0.117534    0.032760    0.000222    0.000026   -0.000082   -0.000371
    15 C    0.144060    0.085364    0.005751    0.034069   -0.025525   -0.011122
    16 C   -0.172657   -0.221935    0.057963    0.083454   -0.054805   -0.076492
    17 H    0.120220    0.010810    0.000345    0.000460   -0.000617   -0.000633
    18 C   -0.123201   -0.076456    0.019409    0.027410   -0.016633   -0.029044
    19 H    0.123283    0.006322    0.000109    0.000132   -0.000156   -0.000255
    20 C   -0.123200   -0.076458    0.019409    0.027410   -0.016632   -0.029044
    21 H    0.123283    0.006322    0.000109    0.000132   -0.000156   -0.000255
    22 C   -0.172657   -0.221934    0.057962    0.083454   -0.054805   -0.076492
    23 H    0.120220    0.010810    0.000345    0.000460   -0.000617   -0.000633
    24 C    0.144060    0.085363    0.005751    0.034069   -0.025525   -0.011122
    ----------------------------------------------------------------------------
    Sum:    0.000000   -2.000000    0.403158    0.596842   -0.403158   -0.596842
    
    Multipole moment analysis of the density matrix
      Molecular charge:                      0.000000
      Number of electrons:                   94.000000
        Center of electronic charge [Ang]: [ -0.000000,  -0.000000,   0.000001]
      Total nuclear charge:                  94.000000
        Center of nuclear charge [Ang]:    [ -0.000000,  -0.000000,  -0.000000]
      Dipole moment [D]:                     0.000438
        Cartesian components [D]:          [  0.000000,   0.000000,  -0.000438]
      RMS size of the density [Ang]:         2.923900
        Cartesian components [Ang]:        [  2.597363,   1.267499,   0.443108]
    
    Exciton analysis of the difference density matrix
    Total:
      <r_h> [Ang]:                  [  0.000000,   0.000000,   0.000050]
      <r_e> [Ang]:                  [  0.000000,  -0.000000,   0.000039]
      |<r_e - r_h>| [Ang]:            0.000011
      Hole size [Ang]:                2.979034
        Cartesian components [Ang]: [  2.534601,   1.341874,   0.806110]
      Electron size [Ang]:            3.011382
        Cartesian components [Ang]: [  2.569448,   1.341856,   0.815956]
    
    Alpha spin:
      <r_h> [Ang]:                  [  0.000001,   0.000000,   0.000035]
      <r_e> [Ang]:                  [  0.000001,   0.000000,   0.000067]
      |<r_e - r_h>| [Ang]:            0.000032
      Hole size [Ang]:                3.008287
        Cartesian components [Ang]: [  2.548916,   1.388899,   0.789793]
      Electron size [Ang]:            3.006232
        Cartesian components [Ang]: [  2.571454,   1.334890,   0.801951]
    
    Beta spin:
      <r_h> [Ang]:                  [  0.000000,  -0.000000,   0.000060]
      <r_e> [Ang]:                  [  0.000000,  -0.000000,   0.000020]
      |<r_e - r_h>| [Ang]:            0.000039
      Hole size [Ang]:                2.959110
        Cartesian components [Ang]: [  2.524885,   1.309153,   0.816948]
      Electron size [Ang]:            3.014856
        Cartesian components [Ang]: [  2.568092,   1.346542,   0.825281]

  Excited State 9 :
  -------------------------
    NOs (alpha)
      Occupation of frontier NOs:
         0.2645   0.7355
      Number of electrons: 48.000000
    NOs (beta)
      Occupation of frontier NOs:
         0.2598   0.7402
      Number of electrons: 46.000000
    NOs (spin-traced)
      Occupation of frontier NOs:
         0.8290   1.1956
      Number of electrons: 94.000000
      Number of unpaired electrons: n_u =  3.12328, n_u,nl =  3.12499
      NO participation ratio (PR_NO):  5.455542
    
    
    Mulliken Population Analysis
    Atom  Charge (e)    Spin (e)  h+ (alpha)   h+ (beta)  e- (alpha)   e- (beta)
    ----------------------------------------------------------------------------
     1 C    0.136164    0.086814    0.011949    0.032995   -0.034946   -0.014720
     2 C   -0.178322   -0.189844    0.071010    0.059535   -0.054639   -0.071451
     3 H    0.120099    0.010990    0.000410    0.000327   -0.000651   -0.000650
     4 C   -0.120966   -0.076522    0.021397    0.022195   -0.017537   -0.022679
     5 H    0.123301    0.006290    0.000119    0.000101   -0.000173   -0.000199
     6 C   -0.120966   -0.076523    0.021397    0.022194   -0.017536   -0.022679
     7 H    0.123301    0.006290    0.000119    0.000101   -0.000173   -0.000199
[...]
   33   35   0.000000  -0.000000  -0.000022   2.150833E-05
   33   36  -0.000003   0.000009  -0.000000   9.501775E-06
   33   37   0.000000  -0.000000  -0.000027   2.676677E-05
   33   38   0.000040   0.000039   0.000000   5.588866E-05
   33   39  -0.000000  -0.000000   0.000009    8.77387E-06
   33   40  -0.000000   0.000000  -0.681130      0.6811298
   33   41  -0.000006  -0.000050  -0.000001   5.054682E-05
   33   42   0.000000   0.000000  -0.001044    0.001044492
   33   43   0.000000  -0.000000   0.000755   0.0007550336
   33   44   0.019891   0.000000  -0.000001     0.01989124
   33   45   0.000000   0.039335   0.000001     0.03933521
   33   46   0.000001   0.000040  -0.000000   3.983778E-05
   33   47  -0.000000   0.007894  -0.000001    0.007893593
   33   48   0.000000  -0.000000  -0.000096   9.562148E-05
   33   49  -0.000000   0.000000  -0.000470   0.0004699925
   33   50   0.000000   0.000000   0.000506    0.000506373
   34   35   0.000000  -0.000000  -0.000674   0.0006738242
   34   36  -0.023510   0.000000   0.000001     0.02351011
   34   37  -0.000003  -0.000000   0.612794      0.6127945
   34   38  -0.128009   0.000000  -0.000014      0.1280093
   34   39  -0.000000  -0.000000  -0.000793   0.0007926823
   34   40  -0.000000  -0.000000  -0.000276   0.0002755139
   34   41  -0.000001   0.006639  -0.000001    0.006638851
   34   42  -0.000000   0.000000   0.000004   3.783435E-06
   34   43   0.000000  -0.000000  -0.000005   5.130774E-06
   34   44   0.000017  -0.000003  -0.000000   1.741399E-05
   34   45   0.000172   0.000106  -0.000000   0.0002016518
   34   46   0.000000  -0.012657  -0.000002     0.01265675
   34   47  -0.000014   0.000001  -0.000000   1.449799E-05
   34   48  -0.000000   0.000000   0.000000   1.532941E-07
   34   49  -0.000000  -0.000000   0.000000   4.934522E-07
   34   50   0.000000   0.000000  -0.069130     0.06912979
   35   36  -0.000000  -0.027401   0.000000     0.02740145
   35   37   0.000000  -0.000001   0.000007   7.261398E-06
   35   38   0.000000  -0.046866   0.000005     0.04686575
   35   39  -0.000000  -0.000000   0.002266    0.002265772
   35   40   0.000000  -0.000000   0.001194    0.001194118
   35   41  -0.003269  -0.000000   0.000018    0.003269398
   35   42  -0.000001  -0.000001  -1.547741       1.547741
   35   43  -0.000001  -0.000000  -1.020993       1.020993
   35   44  -0.000048  -0.000007   0.000001   4.830233E-05
   35   45   0.000000   0.000072  -0.000003   7.232054E-05
   35   46  -0.000633  -0.000000  -0.000001   0.0006331717
   35   47   0.000015  -0.000024  -0.000000   2.789906E-05
   35   48   0.000000  -0.000000   0.065204     0.06520404
   35   49  -0.000000  -0.000000   0.012215     0.01221524
   35   50  -0.000000  -0.000000  -0.000001   1.228674E-06
   36   37   0.000000   0.028465   0.000000     0.02846547
   36   38  -0.000000  -0.000001   0.000006   6.074354E-06
   36   39   0.000013  -0.000033   0.000000    3.52218E-05
   36   40   0.000025  -0.000035   0.000001    4.29149E-05
   36   41  -0.000000   0.000000  -0.791884      0.7918842
   36   42  -0.000773   0.000000  -0.000013   0.0007729036
   36   43   0.007867  -0.000000   0.000000    0.007866904
   36   44  -0.000000  -0.000000   0.000040   4.003802E-05
   36   45   0.000000   0.000000  -0.000840   0.0008404725
   36   46   0.000001  -0.000000   0.466476      0.4664756
   36   47   0.000000  -0.000000  -0.000156   0.0001555045
   36   48   0.007753   0.000000  -0.000002    0.007753333
   36   49   0.034031   0.000000   0.000002     0.03403146
   36   50   0.000000  -0.020998  -0.000001     0.02099798
   37   38  -0.000001  -0.134641  -0.000004      0.1346405
   37   39   0.000000   0.000000   0.000370   0.0003695932
   37   40   0.000000  -0.000000  -0.001596    0.001595614
   37   41  -0.004656  -0.000001  -0.000005    0.004655792
   37   42  -0.000001  -0.000001   0.527526      0.5275257
   37   43   0.000001  -0.000000  -0.846229      0.8462295
   37   44   0.000027  -0.000014   0.000000   3.011383E-05
   37   45  -0.000054   0.000031  -0.000005   6.234053E-05
   37   46   0.028367   0.000000   0.000010     0.02836709
   37   47  -0.000005  -0.000013   0.000000   1.402129E-05
   37   48  -0.000000  -0.000000  -0.143558       0.143558
   37   49   0.000002  -0.000000   0.243924      0.2439236
   37   50   0.000000  -0.000000  -0.000001   6.898496E-07
   38   39   0.000011  -0.000134   0.000000   0.0001346661
   38   40   0.000088   0.000019  -0.000000   8.957455E-05
   38   41   0.000001  -0.000000   0.172403      0.1724029
   38   42  -0.016611   0.000002  -0.000012     0.01661105
   38   43   0.020252  -0.000002   0.000020     0.02025209
   38   44  -0.000000  -0.000000  -0.000145   0.0001448391
   38   45   0.000000  -0.000000   0.000161   0.0001613745
   38   46  -0.000001  -0.000000   0.411639      0.4116388
   38   47   0.000000  -0.000000   0.000021   2.055277E-05
   38   48   0.006622  -0.000000   0.000003    0.006622026
   38   49   0.074011   0.000000  -0.000006     0.07401066
   38   50   0.000001  -0.025380  -0.000001     0.02537978
   39   40  -0.000000  -0.000000   0.248756      0.2487561
   39   41   0.000026   0.000050   0.000000   5.694906E-05
   39   42   0.000000  -0.000000  -0.000530   0.0005299649
   39   43   0.000000   0.000000   0.000824   0.0008239788
   39   44   0.022564  -0.000000   0.000001     0.02256359
   39   45  -0.000000  -0.058530  -0.000001     0.05852995
   39   46  -0.000050  -0.000063   0.000000   8.059978E-05
   39   47   0.000001   0.005897   0.000000    0.005897325
   39   48  -0.000000   0.000000   0.000231   0.0002313703
   39   49   0.000000  -0.000000  -0.000218   0.0002183414
   39   50   0.000000   0.000000  -0.000512   0.0005123648
   40   41   0.000026   0.000017   0.000000   3.142048E-05
   40   42  -0.000000  -0.000000  -0.000317   0.0003165337
   40   43   0.000000  -0.000000  -0.000589   0.0005891161
   40   44   0.000000  -0.032192  -0.000002     0.03219216
   40   45  -0.036173  -0.000000  -0.000002     0.03617345
   40   46   0.000011   0.000012   0.000000   1.572439E-05
   40   47   0.004530  -0.000000  -0.000000    0.004530232
   40   48   0.000000   0.000000   0.000054   5.428234E-05
   40   49   0.000000  -0.000000   0.000085   8.465789E-05
   40   50  -0.000000  -0.000000  -0.000165   0.0001650647
   41   42  -0.000000   0.012395  -0.000001     0.01239546
   41   43   0.000000  -0.013756   0.000001     0.01375595
   41   44   0.000000  -0.000000   0.000025   2.546948E-05
   41   45  -0.000000  -0.000000  -0.000033   3.277768E-05
   41   46  -0.000000   0.000000   0.000003   3.152883E-06
   41   47   0.000000   0.000000  -0.000021    2.14874E-05
   41   48   0.000000   0.004473   0.000000    0.004472797
   41   49   0.000001   0.002623  -0.000001    0.002623004
   41   50   0.000924  -0.000000  -0.000002    0.000923814
   42   43   0.000000  -0.000000  -0.000004   4.297263E-06
   42   44  -0.000129  -0.000102  -0.000000   0.0001641984
   42   45  -0.000078  -0.000072   0.000000   0.0001060163
   42   46   0.000000  -0.002441   0.000002    0.002441263
   42   47  -0.000014  -0.000021  -0.000000   2.575321E-05
   42   48   0.000000   0.000000  -0.000003   2.629888E-06
   42   49   0.000000   0.000000   0.000002   1.822824E-06
   42   50   0.000000   0.000000   0.280907      0.2809071
   43   44  -0.000065  -0.000002   0.000000   6.488569E-05
   43   45   0.000050  -0.000055  -0.000000   7.424728E-05
   43   46  -0.000000   0.017135  -0.000000     0.01713515
   43   47  -0.000011  -0.000025   0.000000   2.699234E-05
   43   48  -0.000000  -0.000000   0.000002    1.74705E-06
   43   49  -0.000000   0.000000  -0.000004   4.203433E-06
   43   50   0.000000   0.000000   0.216686      0.2166863
   44   45  -0.000000  -0.000000   0.078521     0.07852069
   44   46   0.000000   0.000000  -0.000032   3.215568E-05
   44   47   0.000000  -0.000000   0.044296     0.04429625
   44   48  -0.000026   0.000017  -0.000000   3.062442E-05
   44   49  -0.000004  -0.000063  -0.000000   6.312292E-05
   44   50   0.000013  -0.000030  -0.000000   3.283154E-05
   45   46   0.000000   0.000000  -0.000480   0.0004801103
   45   47  -0.000000   0.000000   0.000003   2.635728E-06
   45   48  -0.000049  -0.000014  -0.000000   5.059081E-05
   45   49  -0.000061  -0.000017   0.000000   6.349081E-05
   45   50   0.000000   0.000044   0.000001   4.378081E-05
   46   47  -0.000000   0.000000  -0.000010   9.689894E-06
   46   48   0.000000   0.002122  -0.000000    0.002121611
   46   49   0.000000   0.010322  -0.000000      0.0103218
   46   50  -0.016748   0.000000  -0.000000      0.0167475
   47   48   0.000029   0.000143  -0.000000   0.0001464127
   47   49   0.000089   0.000123  -0.000000   0.0001516443
   47   50  -0.000085   0.000053   0.000001    9.98604E-05
   48   49   0.000000   0.000000  -0.000002   1.540097E-06
   48   50  -0.000000   0.000000   0.729533      0.7295331
   49   50  -0.000000   0.000000   0.685577       0.685577
 --------------------------------------------------------------------------------

                    END OF TRANSITION MOMENT CALCULATION

 
 --------------------------------------------------------------
 
                    Orbital Energies (a.u.)
 --------------------------------------------------------------
 
 Alpha MOs
 -- Occupied --
-10.5932 -10.5932 -10.5918 -10.5916 -10.5911 -10.5910 -10.5846 -10.5846
-10.5846 -10.5846 -10.5828 -10.5828 -10.5819 -10.5819  -1.0138  -0.9825
 -0.9246  -0.9075  -0.8697  -0.8601  -0.8119  -0.7630  -0.7117  -0.7009
 -0.6926  -0.6380  -0.6088  -0.5892  -0.5459  -0.5449  -0.5313  -0.5295
 -0.4983  -0.4885  -0.4862  -0.4837  -0.4704  -0.4478  -0.4415  -0.4209
 -0.4054  -0.3985  -0.3785  -0.3781  -0.3185  -0.2999  -0.2606  -0.1709
 -- Virtual --
  0.0175   0.0200   0.0432   0.0815   0.0845   0.0860   0.0866   0.1082
  0.1124   0.1298   0.1309   0.1427   0.1537   0.1619   0.1730   0.1898
  0.1914   0.1965   0.2047   0.2192   0.2222   0.2229   0.2256   0.2477
  0.2503   0.2534   0.2800   0.2819   0.2843   0.2906   0.2990   0.3058
  0.3127   0.3172   0.3202   0.3262   0.3264   0.3270   0.3483   0.3485
  0.3523   0.3537   0.3748   0.3838   0.3870   0.4016   0.4016   0.4047
  0.4062   0.4126   0.4231   0.4243   0.4500   0.4513   0.4556   0.4605
  0.4649   0.4795   0.4823   0.4857   0.4905   0.5010   0.5089   0.5237
  0.5311   0.5377   0.5431   0.5466   0.5473   0.5507   0.5539   0.5669
  0.5711   0.5726   0.5811   0.6037   0.6280   0.6608   0.6676   0.6677
  0.6722   0.6932   0.7124   0.7159   0.7289   0.7307   0.7368   0.7565
  0.7688   0.7703   0.7726   0.7853   0.7855   0.7962   0.8005   0.8010
  0.8090   0.8189   0.8205   0.8257   0.8330   0.8396   0.8560   0.8796
  0.8908   0.9013   0.9126   0.9142   0.9246   0.9394   0.9497   0.9504
  0.9556   0.9608   0.9777   1.0032   1.0097   1.0266   1.0545   1.0584
  1.0599   1.0613   1.0614   1.0704   1.1507   1.1602   1.1608   1.1662
  1.1840   1.2186   1.2200   1.2210   1.2595   1.2629   1.2656   1.2688
  1.2898   1.2935   1.3030   1.3079   1.3127   1.3218   1.3370   1.3458
  1.3567   1.3616   1.3658   1.3681   1.4087   1.4450   1.4481   1.4545
  1.4624   1.4762   1.4947   1.5209   1.5275   1.5284   1.5296   1.5586
  1.5677   1.5742   1.5808   1.5860   1.5941   1.5984   1.6204   1.6249
  1.6482   1.6609   1.6627   1.6673   1.6753   1.6913   1.7174   1.7189
  1.7522   1.7589   1.7649   1.7655   1.7666   1.7804   1.7824   1.7925
  1.8023   1.8159   1.8288   1.8389   1.8562   1.9078   1.9200   1.9201
  1.9555   1.9556   1.9741   1.9941   2.0121   2.0268   2.0348   2.0699
  2.0920   2.0946   2.0966   2.0987   2.1346   2.1474   2.1493   2.2108
  2.2279   2.2293   2.2471   2.2492   2.2621   2.2785   2.2860   2.2959
  2.3046   2.3204   2.3256   2.3536   2.3624   2.3956   2.3993   2.4160
  2.4242   2.4387   2.4641   2.5143   2.5220   2.5330   2.5340   2.5570
  2.5897   2.6021   2.6101   2.6145   2.6370   2.6374   2.6745   2.6770
  2.7138   2.7285   2.7341   2.7410   2.7442   2.7588   2.7601   2.7627
  2.7865   2.8017   2.8112   2.8151   2.8162   2.8468   2.8553   2.8619
  2.8685   2.8713   2.8937   2.8945   2.8963   2.9010   2.9124   2.9215
  2.9339   2.9490   2.9567   2.9707   2.9719   2.9816   2.9864   2.9897
  2.9903   3.0171   3.0184   3.0193   3.0383   3.0403   3.0566   3.0711
  3.0746   3.0902   3.0930   3.0954   3.1142   3.1316   3.1444   3.1489
  3.1573   3.1733   3.1750   3.1786   3.1810   3.2282   3.2335   3.2360
  3.2436   3.2643   3.2702   3.2738   3.2835   3.2951   3.2978   3.3010
  3.3195   3.3323   3.3576   3.3636   3.3690   3.3747   3.3804   3.4007
  3.4143   3.4200   3.4214   3.4271   3.4275   3.4373   3.4417   3.4608
  3.4611   3.4708   3.5231   3.5253   3.5361   3.5391   3.5423   3.5467
  3.5712   3.5824   3.6066   3.6068   3.6068   3.6083   3.6106   3.6223
  3.6425   3.6545   3.6587   3.6677   3.6696   3.6770   3.6901   3.7296
  3.7321   3.7388   3.7668   3.7734   3.7950   3.8369   3.8512   3.8619
  3.9016   3.9386   3.9559   3.9752   3.9813   3.9821   3.9969   4.0098
  4.0485   4.0674   4.0684   4.0784   4.0988   4.1120   4.1407   4.1477
  4.1925   4.1950   4.2097   4.2184   4.2209   4.2628   4.2832   4.2884
  4.2967   4.3006   4.3021   4.3121   4.3194   4.3476   4.3487   4.3697
  4.4045   4.4365   4.4527   4.4619   4.4722   4.4773   4.5176   4.5252
  4.5546   4.5706   4.6050   4.6117   4.6386   4.7067   4.7134   4.7502
  4.7534   4.7842   4.8244   4.9003   4.9019   4.9401   4.9413   4.9582
  4.9608   4.9662   4.9929   5.0045   5.1117   5.1330   5.1710   5.1921
  5.2446   5.2705   5.3124   5.3319   5.4112   5.4658   5.5366   5.5586
  5.5619   5.6135   5.6730   5.7787   5.8331   5.8353   5.9150   6.2491
 22.2564  22.8363  22.9466  23.0443  23.0713  23.1186  23.1491  23.2502
 23.2647  23.2862  23.3017  23.5395  23.7723  24.1906
 
 Beta MOs
 -- Occupied --
-10.5936 -10.5936 -10.5930 -10.5930 -10.5818 -10.5818 -10.5817 -10.5817
-10.5813 -10.5813 -10.5808 -10.5808 -10.5804 -10.5804  -1.0060  -0.9769
 -0.9131  -0.8913  -0.8608  -0.8581  -0.7913  -0.7486  -0.7088  -0.6919
 -0.6871  -0.6286  -0.6063  -0.5846  -0.5427  -0.5404  -0.5285  -0.5277
 -0.4952  -0.4835  -0.4831  -0.4673  -0.4583  -0.4443  -0.4226  -0.4193
 -0.4014  -0.3971  -0.3382  -0.3229  -0.2909  -0.2822
 -- Virtual --
 -0.0997  -0.0160   0.0283   0.0473   0.0760   0.0855   0.0874   0.0877
  0.1104   0.1131   0.1187   0.1308   0.1319   0.1434   0.1551   0.1649
  0.1741   0.1913   0.1924   0.2074   0.2086   0.2188   0.2222   0.2262
  0.2410   0.2518   0.2550   0.2550   0.2806   0.2858   0.2914   0.2996
  0.2999   0.3179   0.3209   0.3239   0.3256   0.3278   0.3279   0.3345
  0.3568   0.3583   0.3623   0.3740   0.3767   0.3841   0.3908   0.4060
  0.4093   0.4136   0.4143   0.4182   0.4251   0.4272   0.4541   0.4557
  0.4621   0.4636   0.4674   0.4805   0.4830   0.4938   0.4945   0.5050
  0.5103   0.5279   0.5362   0.5429   0.5441   0.5467   0.5492   0.5532
  0.5603   0.5683   0.5748   0.5760   0.5843   0.6042   0.6331   0.6664
  0.6685   0.6693   0.6777   0.6940   0.7176   0.7182   0.7307   0.7328
  0.7379   0.7614   0.7710   0.7721   0.7761   0.7874   0.7945   0.8030
  0.8056   0.8189   0.8216   0.8223   0.8227   0.8263   0.8404   0.8407
  0.8579   0.8815   0.8913   0.9089   0.9149   0.9187   0.9265   0.9448
  0.9518   0.9559   0.9632   0.9667   0.9803   1.0069   1.0209   1.0286
  1.0558   1.0611   1.0676   1.0688   1.0743   1.0758   1.1533   1.1637
  1.1683   1.1718   1.1869   1.2209   1.2274   1.2335   1.2630   1.2640
  1.2708   1.2798   1.2913   1.2995   1.3039   1.3105   1.3148   1.3237
  1.3402   1.3530   1.3582   1.3670   1.3693   1.3696   1.4107   1.4464
  1.4521   1.4580   1.4859   1.4911   1.5050   1.5231   1.5293   1.5301
  1.5390   1.5593   1.5694   1.5838   1.5928   1.5976   1.6019   1.6036
  1.6217   1.6257   1.6511   1.6668   1.6676   1.6688   1.6779   1.6951
  1.7184   1.7292   1.7643   1.7661   1.7671   1.7719   1.7729   1.7834
  1.7839   1.7959   1.8074   1.8199   1.8316   1.8422   1.8576   1.9103
  1.9287   1.9335   1.9549   1.9603   1.9820   1.9970   2.0181   2.0311
  2.0365   2.0721   2.0967   2.0983   2.0997   2.1015   2.1394   2.1493
  2.1531   2.2118   2.2297   2.2339   2.2523   2.2600   2.2660   2.2833
  2.2894   2.2987   2.3079   2.3234   2.3328   2.3563   2.3644   2.3980
  2.4012   2.4183   2.4272   2.4471   2.4685   2.5224   2.5310   2.5349
  2.5394   2.5583   2.5923   2.6037   2.6168   2.6180   2.6420   2.6470
  2.6782   2.6812   2.7152   2.7311   2.7342   2.7431   2.7504   2.7625
  2.7672   2.7698   2.7941   2.8052   2.8132   2.8188   2.8193   2.8503
  2.8580   2.8693   2.8740   2.8767   2.8953   2.9008   2.9061   2.9064
  2.9139   2.9252   2.9376   2.9547   2.9593   2.9759   2.9817   2.9865
  2.9927   2.9993   3.0013   3.0202   3.0210   3.0320   3.0449   3.0510
  3.0726   3.0753   3.0795   3.0941   3.0948   3.1028   3.1154   3.1396
  3.1449   3.1562   3.1659   3.1778   3.1784   3.1868   3.1870   3.2336
  3.2378   3.2401   3.2526   3.2660   3.2757   3.2781   3.2906   3.3017
  3.3057   3.3093   3.3255   3.3356   3.3670   3.3703   3.3707   3.3907
  3.3950   3.4018   3.4163   3.4294   3.4296   3.4312   3.4372   3.4488
  3.4500   3.4622   3.4624   3.4715   3.5236   3.5365   3.5398   3.5402
  3.5472   3.5485   3.5740   3.5949   3.6101   3.6110   3.6122   3.6129
  3.6130   3.6243   3.6470   3.6561   3.6662   3.6695   3.6757   3.6796
  3.6927   3.7326   3.7374   3.7453   3.7684   3.7749   3.8011   3.8407
  3.8536   3.8696   3.9076   3.9404   3.9570   3.9810   3.9869   3.9877
  4.0001   4.0158   4.0542   4.0698   4.0703   4.0818   4.1062   4.1186
  4.1434   4.1498   4.1968   4.1980   4.2121   4.2295   4.2299   4.2641
  4.2867   4.2907   4.2987   4.3036   4.3068   4.3134   4.3235   4.3510
  4.3525   4.3748   4.4083   4.4417   4.4600   4.4636   4.4797   4.4806
  4.5257   4.5261   4.5577   4.5728   4.6062   4.6200   4.6426   4.7107
  4.7172   4.7544   4.7575   4.7884   4.8270   4.9019   4.9041   4.9417
  4.9432   4.9639   4.9660   4.9690   4.9950   5.0060   5.1140   5.1357
  5.1745   5.1955   5.2458   5.2713   5.3162   5.3329   5.4118   5.4673
  5.5396   5.5601   5.5630   5.6156   5.6734   5.7805   5.8350   5.8379
  5.9171   6.2502  22.2582  22.8375  22.9495  23.0460  23.0780  23.1216
 23.1508  23.2501  23.2664  23.2907  23.3023  23.5451  23.7718  24.1897
 --------------------------------------------------------------
 
 -----------------------------------------------------------------
                    Cartesian Multipole Moments
 -----------------------------------------------------------------
    Charge (ESU x 10^10)
                 0.0000
    Dipole Moment (Debye)
         X       0.0000      Y       0.0000      Z      -0.0005
       Tot       0.0005
    Quadrupole Moments (Debye-Ang)
        XX     -71.9333     XY       0.0000     YY     -70.7684
        XZ      -0.0000     YZ      -0.0000     ZZ     -88.5732
    Octopole Moments (Debye-Ang^2)
       XXX       0.0000    XXY      -0.0000    XYY      -0.0000
       YYY       0.0000    XXZ      -0.0019    XYZ       0.0094
       YYZ      -0.0042    XZZ      -0.0000    YZZ      -0.0000
       ZZZ      -0.0009
    Hexadecapole Moments (Debye-Ang^3)
      XXXX   -2883.8472   XXXY       0.0000   XXYY    -591.7239
      XYYY      -0.0000   YYYY    -677.6071   XXXZ      -0.0007
      XXYZ      -0.0001   XYYZ      -0.0000   YYYZ      -0.0000
      XXZZ    -620.7146   XYZZ      -0.0000   YYZZ    -158.7099
      XZZZ      -0.0000   YZZZ      -0.0000   ZZZZ    -105.2727
 -----------------------------------------------------------------
 Total job time:  32523.96s(wall), 32428.42s(cpu) 
 Mon Jan 22 20:17:34 2024

        *************************************************************
        *                                                           *
        *  Thank you very much for using Q-Chem.  Have a nice day.  *
        *                                                           *
        *************************************************************


