                  Welcome to Q-Chem
     A Quantum Leap Into The Future Of Chemistry


 Q-Chem 6.0 (devel), Q-Chem, Inc., Pleasanton, CA (2022)

 E. Epifanovsky,  A. T. B. Gilbert,  Xintian Feng,  Joonho Lee,  Yuezhi Mao,  
 N. Mardirossian,  P. Pokhilko,  A. White,  M. Wormit,  M. P. Coons,  
 A. L. Dempwolff,  Zhengting Gan,  D. Hait,  P. R. Horn,  L. D. Jacobson,  
 I. Kaliman,  J. Kussmann,  A. W. Lange,  Ka Un Lao,  D. S. Levine,  Jie Liu,  
 S. C. McKenzie,  A. F. Morrison,  K. Nanda,  F. Plasser,  D. R. Rehn,  
 M. L. Vidal,  Zhi-Qiang You,  Ying Zhu,  B. Alam,  B. Albrecht,  
 A. Aldossary,  E. Alguire,  J. H. Andersen,  V. Athavale,  D. Barton,  
 K. Begam,  A. Behn,  N. Bellonzi,  Y. A. Bernard,  E. J. Berquist,  
 H. Burton,  A. Carreras,  K. Carter-Fenk,  Romit Chakraborty,  
 Chandrima Chakravarty,  Junhan Chen,  A. D. Chien,  K. D. Closser,  
 V. Cofer-Shabica,  L. Cunha,  S. Dasgupta,  Jia Deng,  M. de Wergifosse,  
 M. Diedenhofen,  Hainam Do,  S. Ehlert,  Po-Tung Fang,  S. Fatehi,  
 Qingguo Feng,  T. Friedhoff,  B. Ganoe,  J. Gayvert,  Qinghui Ge,  
 G. Gidofalvi,  M. Goldey,  J. Gomes,  C. Gonzalez-Espinoza,  S. Gulania,  
 A. Gunina,  J. A. Gyamfi,  M. W. D. Hanson-Heine,  P. H. P. Harbach,  
 A. W. Hauser,  M. F. Herbst,  M. Hernandez Vera,  M. Hodecker,  
 Z. C. Holden,  S. Houck,  Xunkun Huang,  Kerwin Hui,  B. C. Huynh,  
 K. Ikeda,  M. Ivanov,  Hyunjun Ji,  Zuxin Jin,  Hanjie Jiang,  B. Kaduk,  
 S. Kaehler,  R. Kang,  K. Khistyaev,  Jaehoon Kim,  Yongbin Kim,  
 P. Klunzinger,  Z. Koczor-Benda,  Joong Hoon Koh,  D. Kosenkov,  
 Saikiran Kotaru,  L. Koulias,  T. Kowalczyk,  C. M. Krauter,  K. Kue,  
 A. Kunitsa,  T. Kus,  A. Landau,  K. V. Lawler,  D. Lefrancois,  S. Lehtola,  
 Rain Li,  Shaozhi Li,  Yi-Pei Li,  Jiashu Liang,  M. Liebenthal,  
 Hung-Hsuan Lin,  You-Sheng Lin,  Fenglai Liu,  Kuan-Yu Liu,  
 M. Loipersberger,  A. Luenser,  C. Malbon,  A. Manjanath,  P. Manohar,  
 E. Mansoor,  S. F. Manzer,  Shan-Ping Mao,  A. V. Marenich,  T. Markovich,  
 S. Mason,  F. Matz,  S. A. Maurer,  P. F. McLaughlin,  M. F. S. J. Menger,  
 J.-M. Mewes,  S. A. Mewes,  P. Morgante,  Mohammad Mostafanejad,  
 J. W. Mullinax,  K. J. Oosterbaan,  G. Paran,  V. Parravicini,  
 Alexander C. Paul,  Suranjan K. Paul,  F. Pavosevic,  Zheng Pei,  S. Prager,  
 E. I. Proynov,  E. Ramos,  B. Rana,  A. E. Rask,  A. Rettig,  R. M. Richard,  
 F. Rob,  E. Rossomme,  T. Scheele,  M. Scheurer,  M. Schneider,  
 P. E. Schneider,  N. Sergueev,  S. M. Sharada,  Hengyuan Shen,  
 W. Skomorowski,  D. W. Small,  C. J. Stein,  Yingli Su,  Yu-Chuan Su,  
 E. J. Sundstrom,  Zhen Tao,  J. Thirman,  Hung-Yi Tsai,  T. Tsuchimochi,  
 N. M. Tubman,  C. Utku,  S. P. Veccham,  O. Vydrov,  J. Wenzel,  
 Jonathan Wong,  J. Witte,  A. Yamada,  Chou-Hsun Yang,  Kun Yao,  
 S. Yeganeh,  S. R. Yost,  A. Zech,  F. Zeller,  Igor Ying Zhang,  
 Xing Zhang,  Yu Zhang,  D. Zuev,  A. Aspuru-Guzik,  A. T. Bell,  
 N. A. Besley,  K. B. Bravaya,  B. R. Brooks,  D. Casanova,  Jeng-Da Chai,  
 Hsing-Ta Chen,  S. Coriani,  C. J. Cramer,  A. E. DePrince, III,  
 R. A. DiStasio Jr.,  A. Dreuw,  B. D. Dunietz,  T. R. Furlani,  
 W. A. Goddard III,  S. Grimme,  S. Hammes-Schiffer,  T. Head-Gordon,  
 W. J. Hehre,  Chao-Ping Hsu,  T.-C. Jagau,  Yousung Jung,  A. Klamt,  
 Jing Kong,  D. S. Lambrecht,  Xiangyuan Li,  WanZhen Liang,  N. J. Mayhall,  
 C. W. McCurdy,  J. B. Neaton,  T. Neudecker,  C. Ochsenfeld,  
 J. A. Parkhill,  R. Peverati,  V. A. Rassolov,  Haisheng Ren,  Yihan Shao,  
 L. V. Slipchenko,  R. P. Steele,  J. E. Subotnik,  A. J. W. Thom,  
 A. Tkatchenko,  D. G. Truhlar,  T. Van Voorhis,  Fan Wang,  
 T. A. Wesolowski,  K. B. Whaley,  H. L. Woodcock III,  P. M. Zimmerman,  
 S. Faraji,  P. M. W. Gill,  M. Head-Gordon,  J. M. Herbert,  A. I. Krylov

 Contributors to earlier versions of Q-Chem not listed above: 
 R. D. Adamson,  B. Austin,  R. Baer,  J. Baker,  G. J. O. Beran,  
 K. Brandhorst,  S. T. Brown,  E. F. C. Byrd,  Arup K. Chakraborty,  
 G. K. L. Chan,  Chun-Min Chang,  Yunqing Chen,  C.-L. Cheng,  
 Siu Hung Chien,  D. M. Chipman,  D. L. Crittenden,  H. Dachsel,  
 R. J. Doerksen,  A. D. Dutoi,  R. G. Edgar,  J. Fosso-Tande,  
 L. Fusti-Molnar,  D. Ghosh,  A. Ghysels,  A. Golubeva-Zadorozhnaya,  
 J. Gonthier,  M. S. Gordon,  S. R. Gwaltney,  G. Hawkins,  J. E. Herr,  
 A. Heyden,  S. Hirata,  E. G. Hohenstein,  G. Kedziora,  F. J. Keil,  
 C. Kelley,  Jihan Kim,  R. A. King,  R. Z. Khaliullin,  P. P. Korambath,  
 W. Kurlancheek,  A. Laurent,  A. M. Lee,  M. S. Lee,  S. V. Levchenko,  
 Ching Yeh Lin,  D. Liotard,  E. Livshits,  R. C. Lochan,  I. Lotan,  
 L. A. Martinez-Martinez,  P. E. Maslen,  N. Nair,  D. P. O'Neill,  
 D. Neuhauser,  E. Neuscamman,  C. M. Oana,  R. Olivares-Amaya,  R. Olson,  
 T. M. Perrine,  B. Peters,  P. A. Pieniazek,  A. Prociuk,  Y. M. Rhee,  
 J. Ritchie,  M. A. Rohrdanz,  E. Rosta,  N. J. Russ,  H. F. Schaefer III,  
 M. W. Schmidt,  N. E. Schultz,  S. Sharma,  N. Shenvi,  C. D. Sherrill,  
 A. C. Simmonett,  A. Sodt,  T. Stein,  D. Stuck,  K. S. Thanthiriwatte,  
 V. Vanovschi,  L. Vogt,  Tao Wang,  A. Warshel,  M. A. Watson,  
 C. F. Williams,  Q. Wu,  X. Xu,  Jun Yang,  W. Zhang,  Yan Zhao

   Please cite Q-Chem as follows:
  "Software for the frontiers of quantum chemistry:
   An overview of developments in the Q-Chem 5 package"
   J. Chem. Phys. 155, 084801 (2021)
   https://doi.org/10.1063/5.0055522 (open access)

 Q-Chem 6.0.1 for Intel X86 EM64T Linux

 Parts of Q-Chem use Armadillo 9.900.5 (Nocturnal Misbehaviour).
 http://arma.sourceforge.net/

 Q-Chem begins on Mon Dec  4 19:49:03 2023  

 Host: atlas-192
0

     Scratch files written to ./qchem48899//
 Processing $rem in /scratch/abel/SOFTWARE/qchem/config/preferences:
 Processing $rem in /dipc/acebg/.qchemrc:

 Checking the input file for inconsistencies... 	...done.

--------------------------------------------------------------
User input:
--------------------------------------------------------------
$comment
 TD-DFT/TDA CALCULATION
$end

$molecule
 READ benzoquinone.molecule
$end

$rem
!**REFERENCE***     
JOBTYPE            SP
EXCHANGE           GEN   !gen:specify in $xc_functional
CORRELATION        NONE
BASIS              def2-TZVP 

!***SCF REFERENCE***
INPUT_BOHR          TRUE
!SKIP_SCFMAN        FALSE
!UNRESTRICTED       FALSE !rectricted-TDDFT not avail in doublets
!SCF_GUESS          core
!SCF_GUESS_MIX      FALSE
!SCF_GUESS_ALWAYS   FALSE
MAX_SCF_CYCLES     999
!SCF_CONVERGENCE    10
SCF_ALGORITHM      DIIS_GDM !DIIS,DM,DIIS_DM,GDM,DIIS_GDM,GD

!SYMMETRY           TRUE !use of symmetry for calculating integrals
!SYM_IGNORE         FALSE !turn off using symmetry
!SYM_TOL            5 !tolerance for determining point group

!THRESH             14
!SCF_FINAL_PRINT    2 !0,1,2,3

!****CIS****
CIS_N_ROOTS        50
!CIS_CONVERGENCE   10
MAX_CIS_CYCLES     200
!CIS_SINGLETS      true
!CIS_TRIPLETS      true
CALC_SOC           2 !not available in doublets in TDDFT
!RPA                FALSE !RPA=1 TDA calc used as guess of TDDFT

!Spin-orbit coupling calculations are implemented for
!restricted, unrestricted CIS/TDDFT, and SF TDDFT
!using Wigner-Eckart theorem: Try CALC_SOC = 2.

!****MEMORY****
!MEM_TOTAL          80000        !Default 2000 MB
!MEM_STATIC         25000         !Default 64 MB

!**Molecular Properties and Analysis **
!POP_MULLIKEN       FALSE   !Run Mulliken population analysis
!LOWDIN_POPULATION  FALSE  !Run Löwdin population analysis
!GUI                0
!STATE_ANALYSIS     TRUE
!MOLDEN_FORMAT      FALSE
!PRINT_ORBITALS     5
$end

$xc_functional
!**50-50 functional**
X  HF    0.50
X  S     0.08
X  B     0.42
C  VWN   0.19
C  LYP   0.81
$end

--------------------------------------------------------------
 ----------------------------------------------------------------
             Standard Nuclear Orientation (Bohr)
    I     Atom           X                Y                Z
 ----------------------------------------------------------------
    1      O       0.0000000000    -0.0000000000     5.0873465738
    2      C       0.0000000000    -0.0000000000     2.6403222818
    3      C       2.3453549260    -0.0000000000     1.3021362826
    4      C      -2.3453549260     0.0000000000     1.3021362826
    5      C      -2.3309491506     0.0000000000    -1.2666211182
    6      C       2.3309491506    -0.0000000000    -1.2666211182
    7      C      -0.0000000000     0.0000000000    -2.7415020535
    8      O      -0.0000000000     0.0000000000    -5.0815679785
    9      H       4.0818321701    -0.0000000000     2.3803198434
   10      H      -4.0818321701     0.0000000000     2.3803198434
   11      H       4.0900977079    -0.0000000000    -2.3129858956
   12      H      -4.0900977079     0.0000000000    -2.3129858956
 ----------------------------------------------------------------
 Molecular Point Group                 C2v   NOp =  4
 Largest Abelian Subgroup              C2v   NOp =  4
 Nuclear Repulsion Energy =         323.04806769 hartrees
 There are       29 alpha and       27 beta electrons
 Requested basis set is def2-TZVP
 There are 104 shells and 272 basis functions

 Total QAlloc Memory Limit   2000 MB
 Mega-Array Size       188 MB
 MEM_STATIC part       192 MB


                       Distance Matrix (Bohrs)
             O (  1)   C (  2)   C (  3)   C (  4)   C (  5)   C (  6)
   C (  2)  2.447024
   C (  3)  4.452921  2.700265
   C (  4)  4.452921  2.700265  4.690710
   C (  5)  6.768030  4.549454  5.335385  2.568798
   C (  6)  6.768030  4.549454  2.568798  5.335385  4.661898
   C (  7)  7.828849  5.381824  4.674580  4.674580  2.758369  2.758369
   O (  8) 10.168915  7.721890  6.800909  6.800909  4.470698  4.470698
   H (  9)  4.897892  4.090105  2.043975  6.516994  7.377258  4.045463
   H ( 10)  4.897892  4.090105  6.516994  2.043975  4.045463  7.377258
   H ( 11)  8.455402  6.423719  4.014130  7.381339  6.505745  2.046823
   H ( 12)  8.455402  6.423719  7.381339  4.014130  2.046823  6.505745
             C (  7)   O (  8)   H (  9)   H ( 10)   H ( 11)
   O (  8)  2.340066
   H (  9)  6.549383  8.505359
   H ( 10)  6.549383  8.505359  8.163664
   H ( 11)  4.112484  4.939023  4.693313  9.423776
   H ( 12)  4.112484  4.939023  9.423776  4.693313  8.180195
 
 A cutoff of  1.0D-12 yielded   5055 shell pairs
 There are     35213 function pairs (     46376 Cartesian)
 Smallest overlap matrix eigenvalue = 1.49E-05

 Scale SEOQF with 1.000000e-01/1.000000e+00/1.000000e-01

 Standard Electronic Orientation quadrupole field applied
 Nucleus-field energy     =    -0.0000000149 hartrees
 Guess from superposition of atomic densities
 Warning:  Energy on first SCF cycle will be non-variational
 SAD guess density has 56.000000 electrons

 -----------------------------------------------------------------------
  General SCF calculation program by
  Eric Jon Sundstrom, Paul Horn, Yuezhi Mao, Dmitri Zuev, Alec White,
  David Stuck, Shaama M.S., Shane Yost, Joonho Lee, David Small,
  Daniel Levine, Susi Lehtola, Hugh Burton, Evgeny Epifanovsky,
  Bang C. Huynh
 -----------------------------------------------------------------------
 Exchange:     0.5000 Hartree-Fock + 0.0800 Slater + 0.4200 B88
 Correlation:  0.1900 VWN5 + 0.8100 LYP
 Using SG-1 standard quadrature grid
 A unrestricted SCF calculation will be
 performed using DIIS, GDM
 SCF converges when RMS gradient is below 1.0e-08
 ---------------------------------------
  Cycle       Energy         DIIS error
 ---------------------------------------
    1    -383.3371375568      1.75e-02  
    2    -381.0270405885      2.37e-03  Done DIIS. Switching to GDM
 ---------------------------------------
  Cycle       Energy        RMS Gradient
 ---------------------------------------
    1    -381.0270405885      3.24e-01   Descent step
    2    -381.1892305387      3.34e-02   Normal BFGS step
    3    -381.2061675171      4.83e-02   Normal BFGS step
    4    -381.2095890062      2.88e-02   Normal BFGS step
    5    -381.2112239252      7.31e-03   Normal BFGS step
    6    -381.2117047889      4.24e-03   Normal BFGS step
    7    -381.2118441016      2.35e-03   Normal BFGS step
    8    -381.2118805907      9.13e-04   Normal BFGS step
    9    -381.2118826960      9.41e-04   Normal BFGS step
   10    -381.2118847309      4.19e-04   Normal BFGS step
   11    -381.2118853966      2.99e-04   Normal BFGS step
   12    -381.2118857228      1.37e-04   Normal BFGS step
   13    -381.2118858151      7.48e-05   Normal BFGS step
   14    -381.2118858313      2.60e-05   Normal BFGS step
   15    -381.2118858333      9.34e-06   Normal BFGS step
   16    -381.2118858338      2.81e-06   Normal BFGS step
   17    -381.2118858339      2.55e-06   Normal BFGS step
   18    -381.2118858339      8.67e-07   Normal BFGS step
   19    -381.2118858339      1.58e-07   Normal BFGS step
   20    -381.2118858339      3.19e-07   Normal BFGS step
   21    -381.2118858339      3.54e-08   Normal BFGS step
  GDM::WARNING energy changes are now smaller than effective accuracy.
  GDM::        calculation will continue, but THRESH should be increased
  GDM::        or SCF_CONVERGENCE decreased. 
  GDM::        effective_thresh = 6.25e-09
   22    -381.2118858337      1.94e-08   Normal BFGS step
   23    -381.2118858340      1.47e-08   Normal BFGS step
  GDM::WARNING energy changes are now smaller than effective accuracy.
  GDM::        calculation will continue, but THRESH should be increased
  GDM::        or SCF_CONVERGENCE decreased. 
  GDM::        effective_thresh = 6.25e-09
   24    -381.2118858341      1.24e-09  Convergence criterion met
 ---------------------------------------
 SCF time:   CPU 233.63s  wall 238.00s 
<S^2> =          2.039660896
 SCF   energy in the final basis set =     -381.2118858341
 Total energy in the final basis set =     -381.2118858341
 

 CIS/TDDFT memory preview:
 --------------------------
	NOV = NOa*NVa + NOb*NVb = 13662
	NRoots = 50, max iter = 200, max vectors = 10000
	Size of each subspace vector: 0.10 Mb
	Davidson algorithm may add up to 2 x NOV x NRoots (= 10.4 Mb) per iteration
	Max memory = 2084.7 Mb (worst case scenario)
	Currently available memory = 2000.0 Mb

	In case of problems:
	(a) increase memory (MEM_TOTAL = 2085 can hold 10000 subspace vectors), or
	(b) request fewer states (CIS_N_ROOTS = 47 will fit in current MEM_TOTAL), or
	(c) reduce MAX_CIS_SUBSPACE (= 9593 will fit in current MEM_TOTAL).
	Reducing MAX_CIS_SUBSPACE may hamper convergence.

 Direct TDDFT/TDA calculation will be performed
 Exchange:     0.5000 Hartree-Fock + 0.0800 Slater + 0.4200 B88
 Correlation:  0.1900 VWN5 + 0.8100 LYP
 Using SG-1 standard quadrature grid
 CIS energy converged when residual is below 10e- 6
 ---------------------------------------------------
 Iter    Rts Conv    Rts Left    Ttl Dev     Max Dev
 ---------------------------------------------------
   1         0          50      0.029442    0.001658
   2         0          50      0.007076    0.000580
   3         0          50      0.003795    0.000820
   4         3          47      0.001914    0.000372
   5        18          32      0.000997    0.000311
   6        31          19      0.000390    0.000169
   7        43           7      0.000134    0.000053
   8        46           4      0.000054    0.000020
   9        48           2      0.000021    0.000004
  10        48           2      0.000014    0.000001
  11        50           0      0.000012    0.000001    Roots Converged
 ---------------------------------------------------
 
 ---------------------------------------------------
         TDDFT/TDA Excitation Energies              
 ---------------------------------------------------

 Excited state   1: excitation energy (eV) =   -0.6865
 Total energy for state  1:                  -381.23711366 au
    <S**2>     :  2.0317
    Trans. Mom.: -0.8185 X  -0.0000 Y  -0.0000 Z
    Strength   :    -0.0112687172
    S(    2) --> V(    1) amplitude = -0.2659 alpha
    D(   27) --> S(    1) amplitude =  0.9554 beta

 Excited state   2: excitation energy (eV) =    0.1922
 Total energy for state  2:                  -381.20482111 au
    <S**2>     :  2.0540
    Trans. Mom.:  0.0000 X   0.0091 Y  -0.0000 Z
    Strength   :     0.0000003910
    D(   25) --> S(    1) amplitude =  0.4716 beta
    D(   26) --> S(    1) amplitude =  0.8630 beta

 Excited state   3: excitation energy (eV) =    0.3600
 Total energy for state  3:                  -381.19865489 au
    <S**2>     :  2.0539
    Trans. Mom.:  0.0000 X   0.0371 Y   0.0000 Z
    Strength   :     0.0000121380
    D(   25) --> S(    1) amplitude =  0.8686 beta
    D(   26) --> S(    1) amplitude = -0.4759 beta

 Excited state   4: excitation energy (eV) =    2.3817
 Total energy for state  4:                  -381.12435919 au
    <S**2>     :  2.1554
    Trans. Mom.:  0.0000 X   0.0000 Y   0.0000 Z
    Strength   :     0.0000000000
    D(   25) --> S(    2) amplitude = -0.3401 beta
    D(   26) --> S(    2) amplitude =  0.8738 beta
    D(   26) --> V(    3) amplitude = -0.2826 beta

 Excited state   5: excitation energy (eV) =    2.4401
 Total energy for state  5:                  -381.12221199 au
    <S**2>     :  2.0951
    Trans. Mom.: -0.5028 X   0.0000 Y  -0.0000 Z
    Strength   :     0.0151105244
    S(    2) --> V(    1) amplitude =  0.7100 alpha
    D(   22) --> S(    1) amplitude = -0.3759 beta
    D(   24) --> S(    1) amplitude = -0.5437 beta
    D(   27) --> S(    1) amplitude =  0.1941 beta

 Excited state   6: excitation energy (eV) =    2.8587
 Total energy for state  6:                  -381.10683176 au
    <S**2>     :  2.0595
    Trans. Mom.: -0.5365 X   0.0000 Y  -0.0000 Z
    Strength   :     0.0201611024
    S(    2) --> V(    1) amplitude =  0.4383 alpha
    D(   22) --> S(    1) amplitude = -0.2940 beta
    D(   24) --> S(    1) amplitude =  0.8270 beta

 Excited state   7: excitation energy (eV) =    2.9606
 Total energy for state  7:                  -381.10308588 au
    <S**2>     :  2.2303
    Trans. Mom.:  0.0000 X   0.0000 Y   0.0000 Z
    Strength   :     0.0000000000
    D(   25) --> S(    2) amplitude =  0.8731 beta
    D(   25) --> V(    3) amplitude =  0.2832 beta
    D(   26) --> S(    2) amplitude =  0.3384 beta

 Excited state   8: excitation energy (eV) =    2.9690
 Total energy for state  8:                  -381.10277695 au
    <S**2>     :  2.0540
    Trans. Mom.:  0.0000 X   0.0000 Y  -1.2275 Z
    Strength   :     0.1096046801
    S(    2) --> V(    2) amplitude =  0.4221 alpha
    D(   27) --> S(    2) amplitude =  0.8780 beta

 Excited state   9: excitation energy (eV) =    3.6895
 Total energy for state  9:                  -381.07629981 au
    <S**2>     :  2.0596
    Trans. Mom.: -0.0000 X  -0.0050 Y  -0.0000 Z
    Strength   :     0.0000022633
    D(   21) --> S(    1) amplitude =  0.9807 beta

 Excited state  10: excitation energy (eV) =    3.7623
 Total energy for state 10:                  -381.07362480 au
    <S**2>     :  2.0527
    Trans. Mom.: -0.0000 X   0.0000 Y   0.0000 Z
    Strength   :     0.0000000000
    D(   17) --> S(    1) amplitude = -0.2036 beta
    D(   23) --> S(    1) amplitude =  0.9603 beta

 Excited state  11: excitation energy (eV) =    4.6934
 Total energy for state 11:                  -381.03940646 au
    <S**2>     :  2.0727
    Trans. Mom.: -1.3953 X  -0.0000 Y   0.0000 Z
    Strength   :     0.2238498627
    D(   25) --> V(    2) amplitude =  0.1804 alpha
    S(    2) --> V(    1) amplitude =  0.4395 alpha
    D(   22) --> S(    1) amplitude =  0.8461 beta

 Excited state  12: excitation energy (eV) =    4.8002
 Total energy for state 12:                  -381.03548183 au
    <S**2>     :  2.0561
    Trans. Mom.:  0.0000 X  -0.0000 Y  -0.0000 Z
    Strength   :     0.0000000000
    D(   18) --> S(    1) amplitude =  0.2476 beta
    D(   20) --> S(    1) amplitude =  0.9444 beta

 Excited state  13: excitation energy (eV) =    4.8575
 Total energy for state 13:                  -381.03337702 au
    <S**2>     :  2.1382
    Trans. Mom.:  0.0000 X  -0.0000 Y   1.3830 Z
    Strength   :     0.2276256860
    D(   25) --> V(    1) amplitude = -0.4265 alpha
    S(    2) --> V(    2) amplitude =  0.8091 alpha
    D(   27) --> S(    2) amplitude = -0.3049 beta

 Excited state  14: excitation energy (eV) =    4.9009
 Total energy for state 14:                  -381.03178058 au
    <S**2>     :  3.1497
    Trans. Mom.:  0.0000 X  -0.0194 Y  -0.0000 Z
    Strength   :     0.0000452292
    D(   27) --> V(    1) amplitude = -0.1649 alpha
    S(    1) --> V(    1) amplitude =  0.9172 alpha
    D(   19) --> S(    1) amplitude =  0.2939 beta

 Excited state  15: excitation energy (eV) =    5.1375
 Total energy for state 15:                  -381.02308669 au
    <S**2>     :  3.1019
    Trans. Mom.: -0.0000 X  -0.0102 Y  -0.0000 Z
    Strength   :     0.0000131728
    D(   27) --> V(    1) amplitude =  0.9720 alpha

 Excited state  16: excitation energy (eV) =    5.3024
 Total energy for state 16:                  -381.01702714 au
    <S**2>     :  2.1095
    Trans. Mom.: -0.0000 X  -0.0994 Y   0.0000 Z
    Strength   :     0.0012842239
    S(    1) --> V(    1) amplitude = -0.3400 alpha
    D(   19) --> S(    1) amplitude =  0.8974 beta

 Excited state  17: excitation energy (eV) =    5.3225
 Total energy for state 17:                  -381.01628689 au
    <S**2>     :  3.5854
    Trans. Mom.: -0.3041 X   0.0000 Y  -0.0000 Z
    Strength   :     0.0120605786
    D(   26) --> V(    1) amplitude = -0.3148 alpha
    D(   27) --> V(    1) amplitude =  0.9157 beta

 Excited state  18: excitation energy (eV) =    5.7239
 Total energy for state 18:                  -381.00153558 au
    <S**2>     :  2.7930
    Trans. Mom.:  0.0000 X  -0.0000 Y   0.1370 Z
    Strength   :     0.0026327867
    D(   25) --> V(    1) amplitude =  0.1720 alpha
    D(   26) --> V(    2) amplitude =  0.3606 alpha
    S(    2) --> V(    8) amplitude = -0.1797 alpha
    D(   24) --> S(    2) amplitude =  0.7110 beta
    D(   27) --> V(    3) amplitude =  0.4839 beta

 Excited state  19: excitation energy (eV) =    6.2324
 Total energy for state 19:                  -380.98284977 au
    <S**2>     :  2.1054
    Trans. Mom.: -0.0000 X   0.0000 Y   0.0000 Z
    Strength   :     0.0000000000
    D(   18) --> S(    1) amplitude =  0.9338 beta
    D(   20) --> S(    1) amplitude = -0.2386 beta

 Excited state  20: excitation energy (eV) =    6.2638
 Total energy for state 20:                  -380.98169679 au
    <S**2>     :  3.0871
    Trans. Mom.: -0.0000 X  -0.0000 Y  -0.0000 Z
    Strength   :     0.0000000000
    D(   27) --> V(    2) amplitude = -0.4715 alpha
    D(   27) --> V(    8) amplitude =  0.1951 alpha
    S(    1) --> V(    2) amplitude =  0.8209 alpha
    S(    1) --> V(    8) amplitude = -0.1879 alpha

 Excited state  21: excitation energy (eV) =    6.3162
 Total energy for state 21:                  -380.97976831 au
    <S**2>     :  2.0918
    Trans. Mom.: -0.0000 X   0.0303 Y  -0.0000 Z
    Strength   :     0.0001417176
    S(    2) --> V(    3) amplitude =  0.9560 alpha
    D(   23) --> S(    2) amplitude = -0.2179 beta

 Excited state  22: excitation energy (eV) =    6.4570
 Total energy for state 22:                  -380.97459643 au
    <S**2>     :  2.2013
    Trans. Mom.: -0.0000 X  -0.0914 Y   0.0000 Z
    Strength   :     0.0013222818
    S(    2) --> V(    3) amplitude =  0.2526 alpha
    D(   20) --> S(    2) amplitude = -0.1698 beta
    D(   23) --> S(    2) amplitude =  0.8520 beta
    D(   23) --> V(    3) amplitude = -0.2147 beta
    D(   25) --> V(    1) amplitude = -0.1847 beta
    D(   26) --> V(    1) amplitude =  0.1795 beta

 Excited state  23: excitation energy (eV) =    6.5002
 Total energy for state 23:                  -380.97300672 au
    <S**2>     :  3.1394
    Trans. Mom.: -0.0000 X   0.0000 Y   0.0000 Z
    Strength   :     0.0000000000
    D(   27) --> V(    2) amplitude =  0.8234 alpha
    D(   27) --> V(    8) amplitude =  0.1618 alpha
    S(    1) --> V(    2) amplitude =  0.4840 alpha
    S(    1) --> V(    8) amplitude =  0.1895 alpha

 Excited state  24: excitation energy (eV) =    6.5760
 Total energy for state 24:                  -380.97022399 au
    <S**2>     :  2.2857
    Trans. Mom.:  0.0000 X   0.0000 Y   1.8486 Z
    Strength   :     0.5505691602
    D(   25) --> V(    1) amplitude =  0.6845 alpha
    S(    2) --> V(    2) amplitude =  0.3275 alpha
    D(   22) --> S(    2) amplitude =  0.4721 beta
    D(   24) --> V(    3) amplitude = -0.2050 beta
    D(   27) --> S(    2) amplitude = -0.1924 beta

 Excited state  25: excitation energy (eV) =    6.5961
 Total energy for state 25:                  -380.96948254 au
    <S**2>     :  2.2338
    Trans. Mom.:  0.0000 X  -0.0124 Y  -0.0000 Z
    Strength   :     0.0000250320
    D(   16) --> S(    1) amplitude =  0.8601 beta
    D(   25) --> V(    1) amplitude = -0.2497 beta
    D(   26) --> V(    1) amplitude = -0.3541 beta

 Excited state  26: excitation energy (eV) =    6.7253
 Total energy for state 26:                  -380.96473386 au
    <S**2>     :  2.3976
    Trans. Mom.: -0.0518 X  -0.0000 Y  -0.0000 Z
    Strength   :     0.0004421184
    D(   26) --> V(    1) amplitude =  0.9280 alpha
    D(   27) --> V(    1) amplitude =  0.3308 beta

 Excited state  27: excitation energy (eV) =    6.8160
 Total energy for state 27:                  -380.96140170 au
    <S**2>     :  2.0893
    Trans. Mom.: -0.0000 X   0.0000 Y   0.0000 Z
    Strength   :     0.0000000000
    D(   17) --> S(    1) amplitude =  0.9187 beta
    D(   20) --> S(    1) amplitude =  0.1550 beta
    D(   21) --> S(    2) amplitude = -0.2191 beta
    D(   23) --> S(    1) amplitude =  0.1752 beta

 Excited state  28: excitation energy (eV) =    6.8603
 Total energy for state 28:                  -380.95977558 au
    <S**2>     :  2.7440
    Trans. Mom.: -0.0000 X  -0.0392 Y   0.0000 Z
    Strength   :     0.0002587545
    D(   16) --> S(    1) amplitude =  0.4267 beta
    D(   19) --> S(    1) amplitude = -0.1858 beta
    D(   25) --> V(    1) amplitude =  0.6969 beta
    D(   26) --> V(    1) amplitude =  0.5040 beta

 Excited state  29: excitation energy (eV) =    6.8912
 Total energy for state 29:                  -380.95864031 au
    <S**2>     :  2.8699
    Trans. Mom.:  0.0000 X   0.0344 Y  -0.0000 Z
    Strength   :     0.0002000791
    D(   16) --> S(    1) amplitude =  0.1679 beta
    D(   20) --> S(    2) amplitude =  0.1559 beta
    D(   23) --> S(    2) amplitude = -0.2115 beta
    D(   25) --> V(    1) amplitude = -0.5736 beta
    D(   26) --> V(    1) amplitude =  0.7248 beta

 Excited state  30: excitation energy (eV) =    6.9257
 Total energy for state 30:                  -380.95736964 au
    <S**2>     :  2.0782
    Trans. Mom.:  0.0000 X  -0.0000 Y   0.0000 Z
    Strength   :     0.0000000000
    S(    2) --> V(    4) amplitude =  0.9866 alpha

 Excited state  31: excitation energy (eV) =    7.1554
 Total energy for state 31:                  -380.94893068 au
    <S**2>     :  2.7644
    Trans. Mom.:  0.0000 X   0.0000 Y   0.1373 Z
    Strength   :     0.0033053316
    S(    2) --> V(    8) amplitude = -0.2104 alpha
    D(   24) --> S(    2) amplitude = -0.6020 beta
    D(   27) --> V(    3) amplitude =  0.7458 beta

 Excited state  32: excitation energy (eV) =    7.2210
 Total energy for state 32:                  -380.94651930 au
    <S**2>     :  2.3031
    Trans. Mom.:  0.0000 X  -0.0000 Y  -0.0000 Z
    Strength   :     0.0000000000
    D(   17) --> S(    1) amplitude =  0.2070 beta
    D(   21) --> S(    2) amplitude =  0.6771 beta
    D(   25) --> V(    3) amplitude = -0.5346 beta
    D(   26) --> S(    2) amplitude =  0.2332 beta
    D(   26) --> V(    3) amplitude =  0.2032 beta
    D(   26) --> V(   10) amplitude = -0.1591 beta

 Excited state  33: excitation energy (eV) =    7.3203
 Total energy for state 33:                  -380.94287015 au
    <S**2>     :  2.0965
    Trans. Mom.: -0.0000 X  -0.0082 Y   0.0000 Z
    Strength   :     0.0000120836
    S(    2) --> V(    6) amplitude =  0.9848 alpha

 Excited state  34: excitation energy (eV) =    7.4254
 Total energy for state 34:                  -380.93900821 au
    <S**2>     :  2.3447
    Trans. Mom.:  0.0000 X  -0.1193 Y   0.0000 Z
    Strength   :     0.0025876964
    S(    2) --> V(    5) amplitude =  0.2037 alpha
    D(   20) --> S(    2) amplitude = -0.8338 beta
    D(   20) --> V(    3) amplitude = -0.2374 beta
    D(   23) --> S(    2) amplitude = -0.2220 beta
    D(   23) --> V(    3) amplitude = -0.1620 beta
    D(   25) --> V(    1) amplitude = -0.1875 beta
    D(   27) --> V(    2) amplitude = -0.1850 beta

 Excited state  35: excitation energy (eV) =    7.5159
 Total energy for state 35:                  -380.93568014 au
    <S**2>     :  2.9903
    Trans. Mom.: -0.0000 X   0.0142 Y   0.0000 Z
    Strength   :     0.0000372821
    S(    2) --> V(    5) amplitude = -0.2474 alpha
    D(   20) --> S(    2) amplitude = -0.2183 beta
    D(   27) --> V(    2) amplitude =  0.9304 beta

 Excited state  36: excitation energy (eV) =    7.6056
 Total energy for state 36:                  -380.93238650 au
    <S**2>     :  2.1266
    Trans. Mom.: -0.0000 X   0.1634 Y   0.0000 Z
    Strength   :     0.0049771327
    S(    2) --> V(    5) amplitude =  0.9245 alpha
    D(   27) --> V(    2) amplitude =  0.2914 beta

 Excited state  37: excitation energy (eV) =    7.7033
 Total energy for state 37:                  -380.92879387 au
    <S**2>     :  2.7867
    Trans. Mom.: -0.0000 X   0.0000 Y   0.0000 Z
    Strength   :     0.0000000000
    D(   25) --> S(    2) amplitude = -0.2829 beta
    D(   25) --> V(    3) amplitude =  0.3183 beta
    D(   25) --> V(   10) amplitude =  0.2356 beta
    D(   26) --> V(    3) amplitude =  0.8253 beta

 Excited state  38: excitation energy (eV) =    7.7929
 Total energy for state 38:                  -380.92550384 au
    <S**2>     :  2.3449
    Trans. Mom.: -0.0000 X  -0.0000 Y  -1.0758 Z
    Strength   :     0.2209704226
    D(   24) --> V(    2) amplitude = -0.2858 alpha
    D(   25) --> V(    1) amplitude = -0.4874 alpha
    D(   22) --> S(    2) amplitude =  0.6831 beta
    D(   24) --> V(    3) amplitude = -0.2300 beta
    D(   27) --> S(    2) amplitude =  0.2169 beta

 Excited state  39: excitation energy (eV) =    8.0517
 Total energy for state 39:                  -380.91599057 au
    <S**2>     :  3.0540
    Trans. Mom.: -0.0000 X   0.0000 Y  -0.0000 Z
    Strength   :     0.0000000000
    D(   27) --> V(    4) amplitude =  0.9913 beta

 Excited state  40: excitation energy (eV) =    8.1005
 Total energy for state 40:                  -380.91419698 au
    <S**2>     :  2.1963
    Trans. Mom.:  0.0000 X  -0.0000 Y   0.0070 Z
    Strength   :     0.0000098500
    D(   26) --> V(    2) amplitude = -0.1600 alpha
    S(    2) --> V(    8) amplitude =  0.8703 alpha
    D(   22) --> S(    2) amplitude = -0.1698 beta
    D(   27) --> V(    3) amplitude =  0.3140 beta

 Excited state  41: excitation energy (eV) =    8.2549
 Total energy for state 41:                  -380.90852213 au
    <S**2>     :  2.4985
    Trans. Mom.:  0.0000 X  -0.0000 Y   0.0000 Z
    Strength   :     0.0000000000
    S(    2) --> V(    7) amplitude = -0.2965 alpha
    D(   21) --> S(    2) amplitude =  0.6064 beta
    D(   25) --> V(    3) amplitude =  0.6037 beta
    D(   26) --> S(    2) amplitude = -0.1656 beta
    D(   26) --> V(    3) amplitude = -0.2539 beta
    D(   26) --> V(   10) amplitude =  0.1553 beta

 Excited state  42: excitation energy (eV) =    8.2951
 Total energy for state 42:                  -380.90704598 au
    <S**2>     :  3.1617
    Trans. Mom.:  0.0000 X   0.0845 Y  -0.0000 Z
    Strength   :     0.0014521421
    D(   22) --> V(    1) amplitude = -0.9715 alpha

 Excited state  43: excitation energy (eV) =    8.3613
 Total energy for state 43:                  -380.90461436 au
    <S**2>     :  2.1213
    Trans. Mom.: -0.0000 X   0.0000 Y   0.0000 Z
    Strength   :     0.0000000000
    S(    2) --> V(    7) amplitude =  0.9282 alpha
    D(   21) --> S(    2) amplitude =  0.2117 beta
    D(   25) --> V(    3) amplitude =  0.1897 beta

 Excited state  44: excitation energy (eV) =    8.4770
 Total energy for state 44:                  -380.90036012 au
    <S**2>     :  3.1611
    Trans. Mom.:  0.0000 X   0.0000 Y  -0.0000 Z
    Strength   :     0.0000000000
    D(   17) --> V(    1) amplitude = -0.1976 alpha
    D(   23) --> V(    1) amplitude =  0.9456 alpha

 Excited state  45: excitation energy (eV) =    8.5637
 Total energy for state 45:                  -380.89717402 au
    <S**2>     :  3.5039
    Trans. Mom.: -0.0457 X  -0.0000 Y  -0.0000 Z
    Strength   :     0.0004382783
    S(    1) --> V(    3) amplitude =  0.2151 alpha
    D(   25) --> V(    5) amplitude =  0.1547 beta
    D(   26) --> V(    2) amplitude =  0.9148 beta
    D(   26) --> V(    5) amplitude = -0.1999 beta

 Excited state  46: excitation energy (eV) =    8.5913
 Total energy for state 46:                  -380.89616257 au
    <S**2>     :  3.1105
    Trans. Mom.: -0.0000 X  -0.1418 Y  -0.0000 Z
    Strength   :     0.0042350676
    S(    2) --> V(   10) amplitude =  0.1544 alpha
    D(   27) --> V(    6) amplitude =  0.9625 beta

 Excited state  47: excitation energy (eV) =    8.6868
 Total energy for state 47:                  -380.89265102 au
    <S**2>     :  3.1098
    Trans. Mom.:  0.1829 X  -0.0000 Y  -0.0000 Z
    Strength   :     0.0071229335
    D(   24) --> V(    1) amplitude = -0.6904 alpha
    D(   25) --> V(    2) amplitude =  0.3771 alpha
    S(    1) --> V(    3) amplitude =  0.1504 alpha
    D(   25) --> V(    2) amplitude =  0.5424 beta

 Excited state  48: excitation energy (eV) =    8.7212
 Total energy for state 48:                  -380.89138582 au
    <S**2>     :  3.2051
    Trans. Mom.: -0.0398 X   0.0000 Y  -0.0000 Z
    Strength   :     0.0003377829
    D(   24) --> V(    1) amplitude =  0.4338 alpha
    D(   25) --> V(    2) amplitude = -0.4379 alpha
    D(   27) --> V(    3) amplitude = -0.1567 alpha
    S(    1) --> V(    3) amplitude =  0.1797 alpha
    D(   25) --> V(    2) amplitude =  0.6887 beta
    D(   25) --> V(    5) amplitude =  0.1676 beta
    D(   26) --> V(    5) amplitude =  0.1801 beta

 Excited state  49: excitation energy (eV) =    8.7458
 Total energy for state 49:                  -380.89048302 au
    <S**2>     :  3.0354
    Trans. Mom.:  0.0000 X   0.0618 Y   0.0000 Z
    Strength   :     0.0008181272
    S(    2) --> V(    9) amplitude = -0.2456 alpha
    D(   27) --> V(    5) amplitude =  0.9398 beta

 Excited state  50: excitation energy (eV) =    8.8004
 Total energy for state 50:                  -380.88847811 au
    <S**2>     :  2.1302
    Trans. Mom.:  0.0000 X   0.0374 Y  -0.0000 Z
    Strength   :     0.0003010147
    S(    2) --> V(    9) amplitude =  0.9364 alpha
    S(    2) --> V(   14) amplitude = -0.1747 alpha
    D(   27) --> V(    5) amplitude =  0.2466 beta
 
 ---------------------------------------------------
  SETman timing summary (seconds)
  CPU time              1780.81s
  System time              0.00s
  Wall time             1815.25s



            *********SPIN-ORBIT COUPLING JOB USING WIGNER–ECKART THEOREM BEGINS HERE*********

 Calculating one electron integrals:  Completed calculation of one electron integrals!
 Calculating MF integrals:  Completed calculation of MF integrals!
 Calculating S^2 values of the spin-states: S^2 values computed!
 Computing transition densities and evaluating SOCME with Libwe: 

**************************************************
 State A: Root 0
 State B: Root 1


 Analysing Sz ans S^2 of the pair of states...
 Ket state:  Computed S^2 = 2.0396608956 will be treated as 2.0000000000 Sz = 1.0000000000
 Bra state:  Computed S^2 = 2.0317337450 will be treated as 2.0000000000 Sz = 1.0000000000
 Clebsh-Gordan coefficient: <1.000,1.000;1.000,0.000|1.000,1.000> = 0.707

_______________________________
 One-electron SO (cm-1)
 Reduced matrix elements:
 <S|| Hso(L-) ||S'> = (-0.090247,-0.000000)
 <S|| Hso(L0) ||S'> = (0.000000,0.000000)
 <S|| Hso(L+) ||S'> = (-0.090247,0.000000)

 SOCC = 0.127628


 Actual matrix elements:
       |Sz=-1.00>           |Sz=0.00>           |Sz=1.00>
 <Sz=-1.00|(0.000000,-0.000000)(-0.063814,0.000000)(-0.000000,0.000000)
 <Sz=0.00|(0.063814,0.000000)(0.000000,-0.000000)(-0.063814,0.000000)
 <Sz=1.00|(-0.000000,0.000000)(0.063814,0.000000)(0.000000,0.000000)
_______________________________
 Mean-field SO (cm-1)
 Reduced matrix elements:
 <S|| Hso(L-) ||S'> = (0.007310,-0.000000)
 <S|| Hso(L0) ||S'> = (0.000000,0.000000)
 <S|| Hso(L+) ||S'> = (0.007806,0.000000)

 Singlet part of <S|| Hso(L0) ||S'> = (0.000000,0.000000) (excluded from all matrix elements)
 L-/L+ Averaged reduced matrix elements:
 <S|| Hso(L-) ||S'> = (0.007558,-0.000000)
 <S|| Hso(L+) ||S'> = (0.007558,0.000000)

 SOCC = 0.010689


 Actual matrix elements:
       |Sz=-1.00>           |Sz=0.00>           |Sz=1.00>
 <Sz=-1.00|(-0.000000,-0.000000)(0.005344,0.000000)(0.000000,0.000000)
 <Sz=0.00|(-0.005344,0.000000)(-0.000000,0.000000)(0.005344,0.000000)
 <Sz=1.00|(0.000000,0.000000)(-0.005344,0.000000)(-0.000000,0.000000)
_______________________________

**************************************************

**************************************************
 State A: Root 0
 State B: Root 2


 Analysing Sz ans S^2 of the pair of states...
 Ket state:  Computed S^2 = 2.039661 will be treated as 2.000000 Sz = 1.000000
 Bra state:  Computed S^2 = 2.054025 will be treated as 2.000000 Sz = 1.000000
 Clebsh-Gordan coefficient: <1.000,1.000;1.000,0.000|1.000,1.000> = 0.707

_______________________________
 One-electron SO (cm-1)
 Reduced matrix elements:
 <S|| Hso(L-) ||S'> = (-0.000000,-4.845342)
 <S|| Hso(L0) ||S'> = (0.000000,-0.000000)
 <S|| Hso(L+) ||S'> = (-0.000000,4.845342)

 SOCC = 6.852348


 Actual matrix elements:
       |Sz=-1.00>           |Sz=0.00>           |Sz=1.00>
 <Sz=-1.00|(0.000000,0.000000)(-0.000000,3.426174)(-0.000000,0.000000)
 <Sz=0.00|(0.000000,3.426174)(0.000000,-0.000000)(-0.000000,3.426174)
 <Sz=1.00|(-0.000000,-0.000000)(0.000000,3.426174)(0.000000,-0.000000)
_______________________________
 Mean-field SO (cm-1)
 Reduced matrix elements:
 <S|| Hso(L-) ||S'> = (-0.000000,-2.718781)
 <S|| Hso(L0) ||S'> = (0.000000,-0.000000)
 <S|| Hso(L+) ||S'> = (-0.000000,2.742924)

 Singlet part of <S|| Hso(L0) ||S'> = (0.000000,0.000000) (excluded from all matrix elements)
 L-/L+ Averaged reduced matrix elements:
 <S|| Hso(L-) ||S'> = (-0.000000,-2.730853)
 <S|| Hso(L+) ||S'> = (-0.000000,2.730853)

 SOCC = 3.862009


 Actual matrix elements:
       |Sz=-1.00>           |Sz=0.00>           |Sz=1.00>
 <Sz=-1.00|(0.000000,0.000000)(-0.000000,1.931005)(-0.000000,0.000000)
 <Sz=0.00|(0.000000,1.931005)(0.000000,-0.000000)(-0.000000,1.931005)
 <Sz=1.00|(-0.000000,-0.000000)(0.000000,1.931005)(0.000000,-0.000000)
_______________________________

**************************************************

**************************************************
 State A: Root 0
 State B: Root 3


 Analysing Sz ans S^2 of the pair of states...
 Ket state:  Computed S^2 = 2.039661 will be treated as 2.000000 Sz = 1.000000
 Bra state:  Computed S^2 = 2.053893 will be treated as 2.000000 Sz = 1.000000
 Clebsh-Gordan coefficient: <1.000,1.000;1.000,0.000|1.000,1.000> = 0.707

_______________________________
 One-electron SO (cm-1)
 Reduced matrix elements:
 <S|| Hso(L-) ||S'> = (-0.000000,0.179344)
 <S|| Hso(L0) ||S'> = (0.000000,0.000000)
 <S|| Hso(L+) ||S'> = (-0.000000,-0.179344)

 SOCC = 0.253631


 Actual matrix elements:
       |Sz=-1.00>           |Sz=0.00>           |Sz=1.00>
 <Sz=-1.00|(0.000000,-0.000000)(-0.000000,-0.126815)(-0.000000,-0.000000)
 <Sz=0.00|(0.000000,-0.126815)(0.000000,0.000000)(-0.000000,-0.126815)
 <Sz=1.00|(-0.000000,0.000000)(0.000000,-0.126815)(0.000000,0.000000)
_______________________________
 Mean-field SO (cm-1)
 Reduced matrix elements:
 <S|| Hso(L-) ||S'> = (-0.000000,0.097747)
 <S|| Hso(L0) ||S'> = (0.000000,0.000000)
 <S|| Hso(L+) ||S'> = (-0.000000,-0.099731)

 Singlet part of <S|| Hso(L0) ||S'> = (-0.000000,-0.000000) (excluded from all matrix elements)
 L-/L+ Averaged reduced matrix elements:
 <S|| Hso(L-) ||S'> = (-0.000000,0.098739)
 <S|| Hso(L+) ||S'> = (-0.000000,-0.098739)

 SOCC = 0.139638


 Actual matrix elements:
       |Sz=-1.00>           |Sz=0.00>           |Sz=1.00>
 <Sz=-1.00|(0.000000,-0.000000)(-0.000000,-0.069819)(-0.000000,-0.000000)
 <Sz=0.00|(0.000000,-0.069819)(0.000000,0.000000)(-0.000000,-0.069819)
 <Sz=1.00|(-0.000000,0.000000)(0.000000,-0.069819)(0.000000,0.000000)
_______________________________

**************************************************

**************************************************
 State A: Root 0
 State B: Root 4


 Analysing Sz ans S^2 of the pair of states...
 Ket state:  Computed S^2 = 2.039661 will be treated as 2.000000 Sz = 1.000000
 Bra state:  Computed S^2 = 2.155420 will be treated as 2.000000 Sz = 1.000000
 Clebsh-Gordan coefficient: <1.000,1.000;1.000,0.000|1.000,1.000> = 0.707

_______________________________
 One-electron SO (cm-1)
 Reduced matrix elements:
 <S|| Hso(L-) ||S'> = (-0.000000,0.000000)
 <S|| Hso(L0) ||S'> = (0.000000,-100.213627)
 <S|| Hso(L+) ||S'> = (-0.000000,-0.000000)

 SOCC = 100.213627


 Actual matrix elements:
       |Sz=-1.00>           |Sz=0.00>           |Sz=1.00>
 <Sz=-1.00|(0.000000,70.861735)(-0.000000,-0.000000)(-0.000000,-0.000000)
 <Sz=0.00|(0.000000,-0.000000)(0.000000,-0.000000)(-0.000000,-0.000000)
 <Sz=1.00|(-0.000000,-0.000000)(0.000000,-0.000000)(0.000000,-70.861735)
_______________________________
 Mean-field SO (cm-1)
 Reduced matrix elements:
 <S|| Hso(L-) ||S'> = (-0.000000,0.000000)
 <S|| Hso(L0) ||S'> = (0.000000,-64.157493)
 <S|| Hso(L+) ||S'> = (-0.000000,-0.000000)

 Singlet part of <S|| Hso(L0) ||S'> = (-0.000000,-0.136151) (excluded from all matrix elements)
 L-/L+ Averaged reduced matrix elements:
 <S|| Hso(L-) ||S'> = (-0.000000,0.000000)
 <S|| Hso(L+) ||S'> = (-0.000000,-0.000000)

 SOCC = 64.157493


 Actual matrix elements:
       |Sz=-1.00>           |Sz=0.00>           |Sz=1.00>
 <Sz=-1.00|(0.000000,45.366198)(-0.000000,-0.000000)(-0.000000,-0.000000)
 <Sz=0.00|(0.000000,-0.000000)(0.000000,-0.000000)(-0.000000,-0.000000)
 <Sz=1.00|(-0.000000,-0.000000)(0.000000,-0.000000)(0.000000,-45.366198)
_______________________________

**************************************************

**************************************************
 State A: Root 0
 State B: Root 5


 Analysing Sz ans S^2 of the pair of states...
 Ket state:  Computed S^2 = 2.039661 will be treated as 2.000000 Sz = 1.000000
 Bra state:  Computed S^2 = 2.095130 will be treated as 2.000000 Sz = 1.000000
 Clebsh-Gordan coefficient: <1.000,1.000;1.000,0.000|1.000,1.000> = 0.707

_______________________________
 One-electron SO (cm-1)
 Reduced matrix elements:
 <S|| Hso(L-) ||S'> = (-0.530300,0.000000)
 <S|| Hso(L0) ||S'> = (0.000000,0.000000)
 <S|| Hso(L+) ||S'> = (-0.530300,-0.000000)

 SOCC = 0.749958


 Actual matrix elements:
       |Sz=-1.00>           |Sz=0.00>           |Sz=1.00>
 <Sz=-1.00|(0.000000,-0.000000)(-0.374979,-0.000000)(-0.000000,0.000000)
 <Sz=0.00|(0.374979,-0.000000)(0.000000,0.000000)(-0.374979,-0.000000)
 <Sz=1.00|(-0.000000,0.000000)(0.374979,-0.000000)(0.000000,0.000000)
_______________________________
 Mean-field SO (cm-1)
 Reduced matrix elements:
 <S|| Hso(L-) ||S'> = (0.008873,0.000000)
 <S|| Hso(L0) ||S'> = (0.000000,0.000000)
 <S|| Hso(L+) ||S'> = (0.009872,-0.000000)

 Singlet part of <S|| Hso(L0) ||S'> = (0.000000,0.000000) (excluded from all matrix elements)
 L-/L+ Averaged reduced matrix elements:
 <S|| Hso(L-) ||S'> = (0.009372,0.000000)
 <S|| Hso(L+) ||S'> = (0.009372,-0.000000)

 SOCC = 0.013255


 Actual matrix elements:
       |Sz=-1.00>           |Sz=0.00>           |Sz=1.00>
 <Sz=-1.00|(-0.000000,-0.000000)(0.006627,-0.000000)(0.000000,-0.000000)
 <Sz=0.00|(-0.006627,-0.000000)(-0.000000,0.000000)(0.006627,-0.000000)
 <Sz=1.00|(0.000000,0.000000)(-0.006627,-0.000000)(-0.000000,0.000000)
_______________________________

**************************************************

**************************************************
 State A: Root 0
 State B: Root 6


 Analysing Sz ans S^2 of the pair of states...
 Ket state:  Computed S^2 = 2.039661 will be treated as 2.000000 Sz = 1.000000
 Bra state:  Computed S^2 = 2.059483 will be treated as 2.000000 Sz = 1.000000
 Clebsh-Gordan coefficient: <1.000,1.000;1.000,0.000|1.000,1.000> = 0.707

_______________________________
 One-electron SO (cm-1)
 Reduced matrix elements:
 <S|| Hso(L-) ||S'> = (0.556235,0.000000)
 <S|| Hso(L0) ||S'> = (0.000000,-0.000000)
 <S|| Hso(L+) ||S'> = (0.556235,-0.000000)

 SOCC = 0.786636


 Actual matrix elements:
       |Sz=-1.00>           |Sz=0.00>           |Sz=1.00>
 <Sz=-1.00|(-0.000000,0.000000)(0.393318,-0.000000)(0.000000,-0.000000)
 <Sz=0.00|(-0.393318,-0.000000)(-0.000000,0.000000)(0.393318,-0.000000)
 <Sz=1.00|(0.000000,-0.000000)(-0.393318,-0.000000)(-0.000000,-0.000000)
_______________________________
 Mean-field SO (cm-1)
 Reduced matrix elements:
 <S|| Hso(L-) ||S'> = (-0.027902,0.000000)
 <S|| Hso(L0) ||S'> = (0.000000,-0.000000)
 <S|| Hso(L+) ||S'> = (-0.029136,-0.000000)

 Singlet part of <S|| Hso(L0) ||S'> = (-0.000000,-0.000000) (excluded from all matrix elements)
 L-/L+ Averaged reduced matrix elements:
 <S|| Hso(L-) ||S'> = (-0.028519,0.000000)
 <S|| Hso(L+) ||S'> = (-0.028519,-0.000000)

 SOCC = 0.040332


 Actual matrix elements:
       |Sz=-1.00>           |Sz=0.00>           |Sz=1.00>
 <Sz=-1.00|(0.000000,0.000000)(-0.020166,-0.000000)(-0.000000,-0.000000)
 <Sz=0.00|(0.020166,-0.000000)(0.000000,0.000000)(-0.020166,-0.000000)
 <Sz=1.00|(-0.000000,-0.000000)(0.020166,-0.000000)(0.000000,-0.000000)
_______________________________

**************************************************

**************************************************
 State A: Root 0
 State B: Root 7


 Analysing Sz ans S^2 of the pair of states...
 Ket state:  Computed S^2 = 2.039661 will be treated as 2.000000 Sz = 1.000000
 Bra state:  Computed S^2 = 2.230259 will be treated as 2.000000 Sz = 1.000000
 Clebsh-Gordan coefficient: <1.000,1.000;1.000,0.000|1.000,1.000> = 0.707

_______________________________
 One-electron SO (cm-1)
 Reduced matrix elements:
 <S|| Hso(L-) ||S'> = (-0.000000,0.000000)
 <S|| Hso(L0) ||S'> = (0.000000,-89.728695)
 <S|| Hso(L+) ||S'> = (-0.000000,-0.000000)

 SOCC = 89.728695


 Actual matrix elements:
       |Sz=-1.00>           |Sz=0.00>           |Sz=1.00>
 <Sz=-1.00|(0.000000,63.447768)(-0.000000,-0.000000)(-0.000000,-0.000000)
 <Sz=0.00|(0.000000,-0.000000)(0.000000,-0.000000)(-0.000000,-0.000000)
 <Sz=1.00|(-0.000000,-0.000000)(0.000000,-0.000000)(0.000000,-63.447768)
_______________________________
 Mean-field SO (cm-1)
 Reduced matrix elements:
 <S|| Hso(L-) ||S'> = (-0.000000,0.000000)
 <S|| Hso(L0) ||S'> = (0.000000,-57.452986)
 <S|| Hso(L+) ||S'> = (-0.000000,-0.000000)

 Singlet part of <S|| Hso(L0) ||S'> = (-0.000000,-0.066134) (excluded from all matrix elements)
 L-/L+ Averaged reduced matrix elements:
 <S|| Hso(L-) ||S'> = (-0.000000,0.000000)
 <S|| Hso(L+) ||S'> = (-0.000000,-0.000000)

 SOCC = 57.452986


 Actual matrix elements:
       |Sz=-1.00>           |Sz=0.00>           |Sz=1.00>
 <Sz=-1.00|(0.000000,40.625396)(-0.000000,-0.000000)(-0.000000,-0.000000)
 <Sz=0.00|(0.000000,-0.000000)(0.000000,-0.000000)(-0.000000,-0.000000)
 <Sz=1.00|(-0.000000,-0.000000)(0.000000,-0.000000)(0.000000,-40.625396)
_______________________________

**************************************************

**************************************************
 State A: Root 0
 State B: Root 8


 Analysing Sz ans S^2 of the pair of states...
 Ket state:  Computed S^2 = 2.039661 will be treated as 2.000000 Sz = 1.000000
 Bra state:  Computed S^2 = 2.054048 will be treated as 2.000000 Sz = 1.000000
 Clebsh-Gordan coefficient: <1.000,1.000;1.000,0.000|1.000,1.000> = 0.707

_______________________________
 One-electron SO (cm-1)
 Reduced matrix elements:
 <S|| Hso(L-) ||S'> = (-0.000000,0.000000)
 <S|| Hso(L0) ||S'> = (0.000000,-0.000000)
 <S|| Hso(L+) ||S'> = (-0.000000,-0.000000)

 SOCC = 0.000000


 Actual matrix elements:
       |Sz=-1.00>           |Sz=0.00>           |Sz=1.00>
 <Sz=-1.00|(0.000000,0.000000)(-0.000000,-0.000000)(-0.000000,-0.000000)
 <Sz=0.00|(0.000000,-0.000000)(0.000000,0.000000)(-0.000000,-0.000000)
 <Sz=1.00|(-0.000000,-0.000000)(0.000000,-0.000000)(0.000000,-0.000000)
_______________________________
 Mean-field SO (cm-1)
 Reduced matrix elements:
 <S|| Hso(L-) ||S'> = (-0.000000,0.000000)
 <S|| Hso(L0) ||S'> = (0.000000,-0.000000)
 <S|| Hso(L+) ||S'> = (-0.000000,-0.000000)

 Singlet part of <S|| Hso(L0) ||S'> = (-0.000000,-0.000000) (excluded from all matrix elements)
 L-/L+ Averaged reduced matrix elements:
 <S|| Hso(L-) ||S'> = (-0.000000,0.000000)
 <S|| Hso(L+) ||S'> = (-0.000000,-0.000000)

 SOCC = 0.000000


 Actual matrix elements:
       |Sz=-1.00>           |Sz=0.00>           |Sz=1.00>
 <Sz=-1.00|(0.000000,0.000000)(-0.000000,-0.000000)(-0.000000,-0.000000)
 <Sz=0.00|(0.000000,-0.000000)(0.000000,0.000000)(-0.000000,-0.000000)
 <Sz=1.00|(-0.000000,-0.000000)(0.000000,-0.000000)(0.000000,-0.000000)
_______________________________

**************************************************

**************************************************
 State A: Root 0
 State B: Root 9


 Analysing Sz ans S^2 of the pair of states...
 Ket state:  Computed S^2 = 2.039661 will be treated as 2.000000 Sz = 1.000000
 Bra state:  Computed S^2 = 2.059592 will be treated as 2.000000 Sz = 1.000000
 Clebsh-Gordan coefficient: <1.000,1.000;1.000,0.000|1.000,1.000> = 0.707

_______________________________
 One-electron SO (cm-1)
 Reduced matrix elements:
 <S|| Hso(L-) ||S'> = (0.000000,1.223523)
 <S|| Hso(L0) ||S'> = (0.000000,-0.000000)
 <S|| Hso(L+) ||S'> = (0.000000,-1.223523)

 SOCC = 1.730323


 Actual matrix elements:
       |Sz=-1.00>           |Sz=0.00>           |Sz=1.00>
 <Sz=-1.00|(-0.000000,0.000000)(0.000000,-0.865161)(0.000000,-0.000000)
 <Sz=0.00|(-0.000000,-0.865161)(-0.000000,0.000000)(0.000000,-0.865161)
 <Sz=1.00|(0.000000,0.000000)(-0.000000,-0.865161)(-0.000000,-0.000000)
_______________________________
 Mean-field SO (cm-1)
 Reduced matrix elements:
 <S|| Hso(L-) ||S'> = (0.000000,0.462339)
 <S|| Hso(L0) ||S'> = (0.000000,-0.000000)
 <S|| Hso(L+) ||S'> = (0.000000,-0.466193)

 Singlet part of <S|| Hso(L0) ||S'> = (0.000000,0.000000) (excluded from all matrix elements)
 L-/L+ Averaged reduced matrix elements:
 <S|| Hso(L-) ||S'> = (0.000000,0.464266)
 <S|| Hso(L+) ||S'> = (0.000000,-0.464266)

 SOCC = 0.656571


 Actual matrix elements:
       |Sz=-1.00>           |Sz=0.00>           |Sz=1.00>
 <Sz=-1.00|(-0.000000,0.000000)(0.000000,-0.328286)(0.000000,-0.000000)
 <Sz=0.00|(-0.000000,-0.328286)(-0.000000,0.000000)(0.000000,-0.328286)
 <Sz=1.00|(0.000000,0.000000)(-0.000000,-0.328286)(-0.000000,-0.000000)
_______________________________

**************************************************

**************************************************
 State A: Root 0
 State B: Root 10


 Analysing Sz ans S^2 of the pair of states...
 Ket state:  Computed S^2 = 2.039661 will be treated as 2.000000 Sz = 1.000000
 Bra state:  Computed S^2 = 2.052701 will be treated as 2.000000 Sz = 1.000000
 Clebsh-Gordan coefficient: <1.000,1.000;1.000,0.000|1.000,1.000> = 0.707

_______________________________
 One-electron SO (cm-1)
 Reduced matrix elements:
 <S|| Hso(L-) ||S'> = (0.000000,0.000000)
 <S|| Hso(L0) ||S'> = (0.000000,-4.175671)
 <S|| Hso(L+) ||S'> = (0.000000,-0.000000)

 SOCC = 4.175671


 Actual matrix elements:
       |Sz=-1.00>           |Sz=0.00>           |Sz=1.00>
 <Sz=-1.00|(-0.000000,2.952645)(0.000000,-0.000000)(0.000000,-0.000000)
 <Sz=0.00|(-0.000000,-0.000000)(-0.000000,-0.000000)(0.000000,-0.000000)
 <Sz=1.00|(0.000000,-0.000000)(-0.000000,-0.000000)(-0.000000,-2.952645)
_______________________________
 Mean-field SO (cm-1)
 Reduced matrix elements:
 <S|| Hso(L-) ||S'> = (0.000000,0.000000)
 <S|| Hso(L0) ||S'> = (0.000000,-2.593886)
 <S|| Hso(L+) ||S'> = (0.000000,-0.000000)

 Singlet part of <S|| Hso(L0) ||S'> = (0.000000,0.007570) (excluded from all matrix elements)
 L-/L+ Averaged reduced matrix elements:
 <S|| Hso(L-) ||S'> = (0.000000,0.000000)
 <S|| Hso(L+) ||S'> = (0.000000,-0.000000)

 SOCC = 2.593886


 Actual matrix elements:
       |Sz=-1.00>           |Sz=0.00>           |Sz=1.00>
 <Sz=-1.00|(-0.000000,1.834154)(0.000000,-0.000000)(0.000000,-0.000000)
 <Sz=0.00|(-0.000000,-0.000000)(-0.000000,-0.000000)(0.000000,-0.000000)
 <Sz=1.00|(0.000000,-0.000000)(-0.000000,-0.000000)(-0.000000,-1.834154)
_______________________________

**************************************************

**************************************************
 State A: Root 0
 State B: Root 11


 Analysing Sz ans S^2 of the pair of states...
 Ket state:  Computed S^2 = 2.039661 will be treated as 2.000000 Sz = 1.000000
 Bra state:  Computed S^2 = 2.072722 will be treated as 2.000000 Sz = 1.000000
 Clebsh-Gordan coefficient: <1.000,1.000;1.000,0.000|1.000,1.000> = 0.707

_______________________________
 One-electron SO (cm-1)
 Reduced matrix elements:
 <S|| Hso(L-) ||S'> = (-0.289603,-0.000000)
 <S|| Hso(L0) ||S'> = (0.000000,-0.000000)
 <S|| Hso(L+) ||S'> = (-0.289603,0.000000)

 SOCC = 0.409560


 Actual matrix elements:
       |Sz=-1.00>           |Sz=0.00>           |Sz=1.00>
 <Sz=-1.00|(0.000000,0.000000)(-0.204780,0.000000)(-0.000000,0.000000)
 <Sz=0.00|(0.204780,0.000000)(0.000000,-0.000000)(-0.204780,0.000000)
 <Sz=1.00|(-0.000000,-0.000000)(0.204780,0.000000)(0.000000,-0.000000)
_______________________________
 Mean-field SO (cm-1)
 Reduced matrix elements:
 <S|| Hso(L-) ||S'> = (0.023926,-0.000000)
 <S|| Hso(L0) ||S'> = (0.000000,-0.000000)
 <S|| Hso(L+) ||S'> = (0.024958,0.000000)

 Singlet part of <S|| Hso(L0) ||S'> = (0.000000,0.000000) (excluded from all matrix elements)
 L-/L+ Averaged reduced matrix elements:
 <S|| Hso(L-) ||S'> = (0.024442,-0.000000)
 <S|| Hso(L+) ||S'> = (0.024442,0.000000)

 SOCC = 0.034566


 Actual matrix elements:
       |Sz=-1.00>           |Sz=0.00>           |Sz=1.00>
 <Sz=-1.00|(-0.000000,0.000000)(0.017283,0.000000)(0.000000,-0.000000)
 <Sz=0.00|(-0.017283,0.000000)(-0.000000,-0.000000)(0.017283,0.000000)
 <Sz=1.00|(0.000000,-0.000000)(-0.017283,0.000000)(-0.000000,-0.000000)
_______________________________

**************************************************

**************************************************
 State A: Root 0
 State B: Root 12


 Analysing Sz ans S^2 of the pair of states...
 Ket state:  Computed S^2 = 2.039661 will be treated as 2.000000 Sz = 1.000000
 Bra state:  Computed S^2 = 2.056136 will be treated as 2.000000 Sz = 1.000000
 Clebsh-Gordan coefficient: <1.000,1.000;1.000,0.000|1.000,1.000> = 0.707

_______________________________
 One-electron SO (cm-1)
 Reduced matrix elements:
 <S|| Hso(L-) ||S'> = (0.000000,0.000000)
 <S|| Hso(L0) ||S'> = (0.000000,-1.633887)
 <S|| Hso(L+) ||S'> = (0.000000,-0.000000)

 SOCC = 1.633887


 Actual matrix elements:
       |Sz=-1.00>           |Sz=0.00>           |Sz=1.00>
 <Sz=-1.00|(-0.000000,1.155333)(0.000000,-0.000000)(0.000000,-0.000000)
 <Sz=0.00|(-0.000000,-0.000000)(-0.000000,-0.000000)(0.000000,-0.000000)
 <Sz=1.00|(0.000000,-0.000000)(-0.000000,-0.000000)(-0.000000,-1.155333)
_______________________________
 Mean-field SO (cm-1)
 Reduced matrix elements:
 <S|| Hso(L-) ||S'> = (0.000000,0.000000)
 <S|| Hso(L0) ||S'> = (0.000000,-1.036387)
 <S|| Hso(L+) ||S'> = (0.000000,-0.000000)

 Singlet part of <S|| Hso(L0) ||S'> = (0.000000,0.003417) (excluded from all matrix elements)
 L-/L+ Averaged reduced matrix elements:
 <S|| Hso(L-) ||S'> = (0.000000,0.000000)
 <S|| Hso(L+) ||S'> = (0.000000,-0.000000)

 SOCC = 1.036387


 Actual matrix elements:
       |Sz=-1.00>           |Sz=0.00>           |Sz=1.00>
 <Sz=-1.00|(-0.000000,0.732836)(0.000000,-0.000000)(0.000000,-0.000000)
 <Sz=0.00|(-0.000000,-0.000000)(-0.000000,-0.000000)(0.000000,-0.000000)
 <Sz=1.00|(0.000000,-0.000000)(-0.000000,-0.000000)(-0.000000,-0.732836)
_______________________________

**************************************************

**************************************************
 State A: Root 0
 State B: Root 13


 Analysing Sz ans S^2 of the pair of states...
 Ket state:  Computed S^2 = 2.039661 will be treated as 2.000000 Sz = 1.000000
 Bra state:  Computed S^2 = 2.138194 will be treated as 2.000000 Sz = 1.000000
 Clebsh-Gordan coefficient: <1.000,1.000;1.000,0.000|1.000,1.000> = 0.707

_______________________________
 One-electron SO (cm-1)
 Reduced matrix elements:
 <S|| Hso(L-) ||S'> = (0.000000,-0.000000)
 <S|| Hso(L0) ||S'> = (0.000000,0.000000)
 <S|| Hso(L+) ||S'> = (0.000000,0.000000)

 SOCC = 0.000000


 Actual matrix elements:
       |Sz=-1.00>           |Sz=0.00>           |Sz=1.00>
 <Sz=-1.00|(-0.000000,-0.000000)(0.000000,0.000000)(0.000000,0.000000)
 <Sz=0.00|(-0.000000,0.000000)(-0.000000,-0.000000)(0.000000,0.000000)
 <Sz=1.00|(0.000000,-0.000000)(-0.000000,0.000000)(-0.000000,0.000000)
_______________________________
 Mean-field SO (cm-1)
 Reduced matrix elements:
 <S|| Hso(L-) ||S'> = (0.000000,-0.000000)
 <S|| Hso(L0) ||S'> = (0.000000,0.000000)
 <S|| Hso(L+) ||S'> = (0.000000,0.000000)

 Singlet part of <S|| Hso(L0) ||S'> = (0.000000,0.000000) (excluded from all matrix elements)
 L-/L+ Averaged reduced matrix elements:
 <S|| Hso(L-) ||S'> = (0.000000,-0.000000)
 <S|| Hso(L+) ||S'> = (0.000000,0.000000)

 SOCC = 0.000000


 Actual matrix elements:
       |Sz=-1.00>           |Sz=0.00>           |Sz=1.00>
 <Sz=-1.00|(-0.000000,-0.000000)(0.000000,0.000000)(0.000000,0.000000)
 <Sz=0.00|(-0.000000,0.000000)(-0.000000,-0.000000)(0.000000,0.000000)
 <Sz=1.00|(0.000000,-0.000000)(-0.000000,0.000000)(-0.000000,0.000000)
_______________________________

**************************************************

**************************************************
 State A: Root 0
 State B: Root 14


 Analysing Sz ans S^2 of the pair of states...
 Ket state:  Computed S^2 = 2.039661 will be treated as 2.000000 Sz = 1.000000
WARNING! The deviation of S^2 from the correct value is large, indicating a significant spin contamination. The results may be unreliable
 Bra state:  Computed S^2 = 3.149738 will be treated as 2.000000 Sz = 1.000000
 Clebsh-Gordan coefficient: <1.000,1.000;1.000,0.000|1.000,1.000> = 0.707

_______________________________
 One-electron SO (cm-1)
 Reduced matrix elements:
 <S|| Hso(L-) ||S'> = (-0.000000,-4.666464)
 <S|| Hso(L0) ||S'> = (0.000000,-0.000000)
 <S|| Hso(L+) ||S'> = (-0.000000,4.666464)

 SOCC = 6.599376


 Actual matrix elements:
       |Sz=-1.00>           |Sz=0.00>           |Sz=1.00>
 <Sz=-1.00|(0.000000,0.000000)(-0.000000,3.299688)(-0.000000,0.000000)
 <Sz=0.00|(0.000000,3.299688)(0.000000,-0.000000)(-0.000000,3.299688)
 <Sz=1.00|(-0.000000,-0.000000)(0.000000,3.299688)(0.000000,-0.000000)
_______________________________
 Mean-field SO (cm-1)
 Reduced matrix elements:
 <S|| Hso(L-) ||S'> = (-0.000000,-2.531545)
 <S|| Hso(L0) ||S'> = (0.000000,-0.000000)
 <S|| Hso(L+) ||S'> = (-0.000000,2.550516)

 Singlet part of <S|| Hso(L0) ||S'> = (-0.000000,-0.000000) (excluded from all matrix elements)
 L-/L+ Averaged reduced matrix elements:
 <S|| Hso(L-) ||S'> = (-0.000000,-2.541030)
 <S|| Hso(L+) ||S'> = (-0.000000,2.541030)

 SOCC = 3.593560


 Actual matrix elements:
       |Sz=-1.00>           |Sz=0.00>           |Sz=1.00>
 <Sz=-1.00|(0.000000,0.000000)(-0.000000,1.796780)(-0.000000,0.000000)
 <Sz=0.00|(0.000000,1.796780)(0.000000,-0.000000)(-0.000000,1.796780)
 <Sz=1.00|(-0.000000,-0.000000)(0.000000,1.796780)(0.000000,-0.000000)
_______________________________

**************************************************

**************************************************
 State A: Root 0
 State B: Root 15


 Analysing Sz ans S^2 of the pair of states...
 Ket state:  Computed S^2 = 2.039661 will be treated as 2.000000 Sz = 1.000000
WARNING! The deviation of S^2 from the correct value is large, indicating a significant spin contamination. The results may be unreliable
 Bra state:  Computed S^2 = 3.101938 will be treated as 2.000000 Sz = 1.000000
 Clebsh-Gordan coefficient: <1.000,1.000;1.000,0.000|1.000,1.000> = 0.707

_______________________________
 One-electron SO (cm-1)
 Reduced matrix elements:
 <S|| Hso(L-) ||S'> = (-0.000000,14.000944)
 <S|| Hso(L0) ||S'> = (0.000000,-0.000000)
 <S|| Hso(L+) ||S'> = (-0.000000,-14.000944)

 SOCC = 19.800325


 Actual matrix elements:
       |Sz=-1.00>           |Sz=0.00>           |Sz=1.00>
 <Sz=-1.00|(0.000000,0.000000)(-0.000000,-9.900163)(-0.000000,-0.000000)
 <Sz=0.00|(0.000000,-9.900163)(0.000000,0.000000)(-0.000000,-9.900163)
 <Sz=1.00|(-0.000000,0.000000)(0.000000,-9.900163)(0.000000,-0.000000)
_______________________________
 Mean-field SO (cm-1)
 Reduced matrix elements:
 <S|| Hso(L-) ||S'> = (-0.000000,7.459381)
 <S|| Hso(L0) ||S'> = (0.000000,-0.000000)
 <S|| Hso(L+) ||S'> = (-0.000000,-7.518156)

 Singlet part of <S|| Hso(L0) ||S'> = (-0.000000,-0.000000) (excluded from all matrix elements)
 L-/L+ Averaged reduced matrix elements:
 <S|| Hso(L-) ||S'> = (-0.000000,7.488768)
 <S|| Hso(L+) ||S'> = (-0.000000,-7.488768)

 SOCC = 10.590718


 Actual matrix elements:
       |Sz=-1.00>           |Sz=0.00>           |Sz=1.00>
 <Sz=-1.00|(0.000000,0.000000)(-0.000000,-5.295359)(-0.000000,-0.000000)
 <Sz=0.00|(0.000000,-5.295359)(0.000000,0.000000)(-0.000000,-5.295359)
 <Sz=1.00|(-0.000000,0.000000)(0.000000,-5.295359)(0.000000,-0.000000)
_______________________________

**************************************************

**************************************************
 State A: Root 0
 State B: Root 16


 Analysing Sz ans S^2 of the pair of states...
 Ket state:  Computed S^2 = 2.039661 will be treated as 2.000000 Sz = 1.000000
 Bra state:  Computed S^2 = 2.109534 will be treated as 2.000000 Sz = 1.000000
 Clebsh-Gordan coefficient: <1.000,1.000;1.000,0.000|1.000,1.000> = 0.707

_______________________________
 One-electron SO (cm-1)
 Reduced matrix elements:
 <S|| Hso(L-) ||S'> = (0.000000,-1.971482)
 <S|| Hso(L0) ||S'> = (0.000000,-0.000000)
 <S|| Hso(L+) ||S'> = (0.000000,1.971482)

 SOCC = 2.788097


 Actual matrix elements:
       |Sz=-1.00>           |Sz=0.00>           |Sz=1.00>
 <Sz=-1.00|(-0.000000,0.000000)(0.000000,1.394049)(0.000000,0.000000)
 <Sz=0.00|(-0.000000,1.394049)(-0.000000,-0.000000)(0.000000,1.394049)
 <Sz=1.00|(0.000000,-0.000000)(-0.000000,1.394049)(-0.000000,-0.000000)
_______________________________
 Mean-field SO (cm-1)
 Reduced matrix elements:
 <S|| Hso(L-) ||S'> = (-0.000000,-1.052803)
 <S|| Hso(L0) ||S'> = (0.000000,-0.000000)
 <S|| Hso(L+) ||S'> = (-0.000000,1.061844)

 Singlet part of <S|| Hso(L0) ||S'> = (-0.000000,-0.000000) (excluded from all matrix elements)
 L-/L+ Averaged reduced matrix elements:
 <S|| Hso(L-) ||S'> = (-0.000000,-1.057323)
 <S|| Hso(L+) ||S'> = (-0.000000,1.057323)

 SOCC = 1.495281


 Actual matrix elements:
       |Sz=-1.00>           |Sz=0.00>           |Sz=1.00>
 <Sz=-1.00|(0.000000,0.000000)(-0.000000,0.747641)(-0.000000,0.000000)
 <Sz=0.00|(0.000000,0.747641)(0.000000,-0.000000)(-0.000000,0.747641)
 <Sz=1.00|(-0.000000,-0.000000)(0.000000,0.747641)(0.000000,-0.000000)
_______________________________

**************************************************

**************************************************
 State A: Root 0
 State B: Root 17


 Analysing Sz ans S^2 of the pair of states...
 Ket state:  Computed S^2 = 2.039661 will be treated as 2.000000 Sz = 1.000000
WARNING! The deviation of S^2 from the correct value is large, indicating a significant spin contamination. The results may be unreliable
 Bra state:  Computed S^2 = 3.585401 will be treated as 2.000000 Sz = 1.000000
 Clebsh-Gordan coefficient: <1.000,1.000;1.000,0.000|1.000,1.000> = 0.707

_______________________________
 One-electron SO (cm-1)
 Reduced matrix elements:
 <S|| Hso(L-) ||S'> = (1.541789,0.000000)
 <S|| Hso(L0) ||S'> = (0.000000,0.000000)
 <S|| Hso(L+) ||S'> = (1.541789,-0.000000)

 SOCC = 2.180419


 Actual matrix elements:
       |Sz=-1.00>           |Sz=0.00>           |Sz=1.00>
 <Sz=-1.00|(-0.000000,-0.000000)(1.090209,-0.000000)(0.000000,-0.000000)
 <Sz=0.00|(-1.090209,-0.000000)(-0.000000,0.000000)(1.090209,-0.000000)
 <Sz=1.00|(0.000000,0.000000)(-1.090209,-0.000000)(-0.000000,0.000000)
_______________________________
 Mean-field SO (cm-1)
 Reduced matrix elements:
 <S|| Hso(L-) ||S'> = (-0.145636,0.000000)
 <S|| Hso(L0) ||S'> = (0.000000,0.000000)
 <S|| Hso(L+) ||S'> = (-0.157054,-0.000000)

 Singlet part of <S|| Hso(L0) ||S'> = (0.000000,0.000000) (excluded from all matrix elements)
 L-/L+ Averaged reduced matrix elements:
 <S|| Hso(L-) ||S'> = (-0.151345,0.000000)
 <S|| Hso(L+) ||S'> = (-0.151345,-0.000000)

 SOCC = 0.214034


 Actual matrix elements:
       |Sz=-1.00>           |Sz=0.00>           |Sz=1.00>
 <Sz=-1.00|(0.000000,-0.000000)(-0.107017,-0.000000)(-0.000000,-0.000000)
 <Sz=0.00|(0.107017,-0.000000)(0.000000,0.000000)(-0.107017,-0.000000)
 <Sz=1.00|(-0.000000,0.000000)(0.107017,-0.000000)(0.000000,0.000000)
_______________________________

**************************************************

**************************************************
 State A: Root 0
 State B: Root 18


 Analysing Sz ans S^2 of the pair of states...
 Ket state:  Computed S^2 = 2.039661 will be treated as 2.000000 Sz = 1.000000
WARNING! The deviation of S^2 from the correct value is large, indicating a significant spin contamination. The results may be unreliable
 Bra state:  Computed S^2 = 2.793007 will be treated as 2.000000 Sz = 1.000000
 Clebsh-Gordan coefficient: <1.000,1.000;1.000,0.000|1.000,1.000> = 0.707

_______________________________
 One-electron SO (cm-1)
 Reduced matrix elements:
 <S|| Hso(L-) ||S'> = (-0.000000,0.000000)
 <S|| Hso(L0) ||S'> = (0.000000,0.000000)
 <S|| Hso(L+) ||S'> = (-0.000000,-0.000000)

 SOCC = 0.000000


 Actual matrix elements:
       |Sz=-1.00>           |Sz=0.00>           |Sz=1.00>
 <Sz=-1.00|(0.000000,-0.000000)(-0.000000,-0.000000)(-0.000000,-0.000000)
 <Sz=0.00|(0.000000,-0.000000)(0.000000,0.000000)(-0.000000,-0.000000)
 <Sz=1.00|(-0.000000,0.000000)(0.000000,-0.000000)(0.000000,0.000000)
_______________________________
 Mean-field SO (cm-1)
 Reduced matrix elements:
 <S|| Hso(L-) ||S'> = (-0.000000,0.000000)
 <S|| Hso(L0) ||S'> = (0.000000,0.000000)
 <S|| Hso(L+) ||S'> = (-0.000000,-0.000000)

 Singlet part of <S|| Hso(L0) ||S'> = (0.000000,0.000000) (excluded from all matrix elements)
 L-/L+ Averaged reduced matrix elements:
 <S|| Hso(L-) ||S'> = (-0.000000,0.000000)
 <S|| Hso(L+) ||S'> = (-0.000000,-0.000000)

 SOCC = 0.000000


 Actual matrix elements:
       |Sz=-1.00>           |Sz=0.00>           |Sz=1.00>
 <Sz=-1.00|(0.000000,-0.000000)(-0.000000,-0.000000)(-0.000000,0.000000)
 <Sz=0.00|(0.000000,-0.000000)(0.000000,0.000000)(-0.000000,-0.000000)
 <Sz=1.00|(-0.000000,0.000000)(0.000000,-0.000000)(0.000000,0.000000)
_______________________________

**************************************************

**************************************************
 State A: Root 0
 State B: Root 19


 Analysing Sz ans S^2 of the pair of states...
 Ket state:  Computed S^2 = 2.039661 will be treated as 2.000000 Sz = 1.000000
 Bra state:  Computed S^2 = 2.105426 will be treated as 2.000000 Sz = 1.000000
 Clebsh-Gordan coefficient: <1.000,1.000;1.000,0.000|1.000,1.000> = 0.707

_______________________________
 One-electron SO (cm-1)
 Reduced matrix elements:
 <S|| Hso(L-) ||S'> = (-0.000000,0.000000)
 <S|| Hso(L0) ||S'> = (0.000000,-12.767377)
 <S|| Hso(L+) ||S'> = (-0.000000,-0.000000)

 SOCC = 12.767377


 Actual matrix elements:
       |Sz=-1.00>           |Sz=0.00>           |Sz=1.00>
 <Sz=-1.00|(0.000000,9.027899)(-0.000000,-0.000000)(-0.000000,-0.000000)
 <Sz=0.00|(0.000000,-0.000000)(0.000000,-0.000000)(-0.000000,-0.000000)
 <Sz=1.00|(-0.000000,-0.000000)(0.000000,-0.000000)(0.000000,-9.027899)
_______________________________
 Mean-field SO (cm-1)
 Reduced matrix elements:
 <S|| Hso(L-) ||S'> = (-0.000000,0.000000)
 <S|| Hso(L0) ||S'> = (0.000000,-7.218658)
 <S|| Hso(L+) ||S'> = (-0.000000,-0.000000)

 Singlet part of <S|| Hso(L0) ||S'> = (-0.000000,-0.010535) (excluded from all matrix elements)
 L-/L+ Averaged reduced matrix elements:
 <S|| Hso(L-) ||S'> = (-0.000000,0.000000)
 <S|| Hso(L+) ||S'> = (-0.000000,-0.000000)

 SOCC = 7.218658


 Actual matrix elements:
       |Sz=-1.00>           |Sz=0.00>           |Sz=1.00>
 <Sz=-1.00|(0.000000,5.104362)(-0.000000,-0.000000)(-0.000000,-0.000000)
 <Sz=0.00|(0.000000,-0.000000)(0.000000,-0.000000)(-0.000000,-0.000000)
 <Sz=1.00|(-0.000000,-0.000000)(0.000000,-0.000000)(0.000000,-5.104362)
_______________________________

**************************************************

**************************************************
 State A: Root 0
 State B: Root 20


 Analysing Sz ans S^2 of the pair of states...
 Ket state:  Computed S^2 = 2.039661 will be treated as 2.000000 Sz = 1.000000
WARNING! The deviation of S^2 from the correct value is large, indicating a significant spin contamination. The results may be unreliable
 Bra state:  Computed S^2 = 3.087051 will be treated as 2.000000 Sz = 1.000000
 Clebsh-Gordan coefficient: <1.000,1.000;1.000,0.000|1.000,1.000> = 0.707

_______________________________
 One-electron SO (cm-1)
 Reduced matrix elements:
 <S|| Hso(L-) ||S'> = (0.000000,0.000000)
 <S|| Hso(L0) ||S'> = (0.000000,62.378922)
 <S|| Hso(L+) ||S'> = (0.000000,-0.000000)

 SOCC = 62.378922


 Actual matrix elements:
       |Sz=-1.00>           |Sz=0.00>           |Sz=1.00>
 <Sz=-1.00|(-0.000000,-44.108559)(0.000000,-0.000000)(0.000000,0.000000)
 <Sz=0.00|(-0.000000,-0.000000)(-0.000000,0.000000)(0.000000,-0.000000)
 <Sz=1.00|(0.000000,0.000000)(-0.000000,-0.000000)(-0.000000,44.108559)
_______________________________
 Mean-field SO (cm-1)
 Reduced matrix elements:
 <S|| Hso(L-) ||S'> = (0.000000,0.000000)
 <S|| Hso(L0) ||S'> = (0.000000,38.723168)
 <S|| Hso(L+) ||S'> = (0.000000,-0.000000)

 Singlet part of <S|| Hso(L0) ||S'> = (-0.000000,-0.034629) (excluded from all matrix elements)
 L-/L+ Averaged reduced matrix elements:
 <S|| Hso(L-) ||S'> = (0.000000,0.000000)
 <S|| Hso(L+) ||S'> = (0.000000,-0.000000)

 SOCC = 38.723168


 Actual matrix elements:
       |Sz=-1.00>           |Sz=0.00>           |Sz=1.00>
 <Sz=-1.00|(-0.000000,-27.381415)(0.000000,-0.000000)(0.000000,0.000000)
 <Sz=0.00|(-0.000000,-0.000000)(-0.000000,0.000000)(0.000000,-0.000000)
 <Sz=1.00|(0.000000,0.000000)(-0.000000,-0.000000)(-0.000000,27.381415)
_______________________________

**************************************************

**************************************************
 State A: Root 0
 State B: Root 21


 Analysing Sz ans S^2 of the pair of states...
 Ket state:  Computed S^2 = 2.039661 will be treated as 2.000000 Sz = 1.000000
 Bra state:  Computed S^2 = 2.091760 will be treated as 2.000000 Sz = 1.000000
 Clebsh-Gordan coefficient: <1.000,1.000;1.000,0.000|1.000,1.000> = 0.707

_______________________________
 One-electron SO (cm-1)
 Reduced matrix elements:
 <S|| Hso(L-) ||S'> = (0.000000,8.209555)
 <S|| Hso(L0) ||S'> = (0.000000,-0.000000)
 <S|| Hso(L+) ||S'> = (0.000000,-8.209555)

 SOCC = 11.610065


 Actual matrix elements:
       |Sz=-1.00>           |Sz=0.00>           |Sz=1.00>
 <Sz=-1.00|(-0.000000,0.000000)(0.000000,-5.805032)(0.000000,-0.000000)
 <Sz=0.00|(-0.000000,-5.805032)(-0.000000,0.000000)(0.000000,-5.805032)
 <Sz=1.00|(0.000000,0.000000)(-0.000000,-5.805032)(-0.000000,-0.000000)
_______________________________
 Mean-field SO (cm-1)
 Reduced matrix elements:
 <S|| Hso(L-) ||S'> = (0.000000,4.235016)
 <S|| Hso(L0) ||S'> = (0.000000,-0.000000)
 <S|| Hso(L+) ||S'> = (0.000000,-4.271965)

 Singlet part of <S|| Hso(L0) ||S'> = (0.000000,0.000000) (excluded from all matrix elements)
 L-/L+ Averaged reduced matrix elements:
 <S|| Hso(L-) ||S'> = (0.000000,4.253490)
 <S|| Hso(L+) ||S'> = (0.000000,-4.253490)

 SOCC = 6.015344


 Actual matrix elements:
       |Sz=-1.00>           |Sz=0.00>           |Sz=1.00>
 <Sz=-1.00|(-0.000000,0.000000)(0.000000,-3.007672)(0.000000,-0.000000)
 <Sz=0.00|(-0.000000,-3.007672)(-0.000000,0.000000)(0.000000,-3.007672)
 <Sz=1.00|(0.000000,0.000000)(-0.000000,-3.007672)(-0.000000,-0.000000)
_______________________________

**************************************************

**************************************************
 State A: Root 0
 State B: Root 22


 Analysing Sz ans S^2 of the pair of states...
 Ket state:  Computed S^2 = 2.039661 will be treated as 2.000000 Sz = 1.000000
 Bra state:  Computed S^2 = 2.201252 will be treated as 2.000000 Sz = 1.000000
 Clebsh-Gordan coefficient: <1.000,1.000;1.000,0.000|1.000,1.000> = 0.707

_______________________________
 One-electron SO (cm-1)
 Reduced matrix elements:
 <S|| Hso(L-) ||S'> = (-0.000000,-58.884124)
 <S|| Hso(L0) ||S'> = (0.000000,-0.000000)
 <S|| Hso(L+) ||S'> = (-0.000000,58.884124)

 SOCC = 83.274726


 Actual matrix elements:
       |Sz=-1.00>           |Sz=0.00>           |Sz=1.00>
 <Sz=-1.00|(0.000000,0.000000)(-0.000000,41.637363)(-0.000000,0.000000)
 <Sz=0.00|(0.000000,41.637363)(0.000000,-0.000000)(-0.000000,41.637363)
 <Sz=1.00|(-0.000000,-0.000000)(0.000000,41.637363)(0.000000,-0.000000)
_______________________________
 Mean-field SO (cm-1)
 Reduced matrix elements:
 <S|| Hso(L-) ||S'> = (-0.000000,-37.715185)
 <S|| Hso(L0) ||S'> = (0.000000,-0.000000)
 <S|| Hso(L+) ||S'> = (-0.000000,37.853215)

 Singlet part of <S|| Hso(L0) ||S'> = (-0.000000,-0.000000) (excluded from all matrix elements)
 L-/L+ Averaged reduced matrix elements:
 <S|| Hso(L-) ||S'> = (-0.000000,-37.784200)
 <S|| Hso(L+) ||S'> = (-0.000000,37.784200)

 SOCC = 53.434928


 Actual matrix elements:
       |Sz=-1.00>           |Sz=0.00>           |Sz=1.00>
 <Sz=-1.00|(0.000000,0.000000)(-0.000000,26.717464)(-0.000000,0.000000)
 <Sz=0.00|(0.000000,26.717464)(0.000000,-0.000000)(-0.000000,26.717464)
 <Sz=1.00|(-0.000000,-0.000000)(0.000000,26.717464)(0.000000,-0.000000)
_______________________________

**************************************************

**************************************************
 State A: Root 0
 State B: Root 23


 Analysing Sz ans S^2 of the pair of states...
 Ket state:  Computed S^2 = 2.039661 will be treated as 2.000000 Sz = 1.000000
WARNING! The deviation of S^2 from the correct value is large, indicating a significant spin contamination. The results may be unreliable
 Bra state:  Computed S^2 = 3.139390 will be treated as 2.000000 Sz = 1.000000
 Clebsh-Gordan coefficient: <1.000,1.000;1.000,0.000|1.000,1.000> = 0.707

_______________________________
 One-electron SO (cm-1)
 Reduced matrix elements:
 <S|| Hso(L-) ||S'> = (-0.000000,0.000000)
 <S|| Hso(L0) ||S'> = (0.000000,-80.093593)
 <S|| Hso(L+) ||S'> = (-0.000000,-0.000000)

 SOCC = 80.093593


 Actual matrix elements:
       |Sz=-1.00>           |Sz=0.00>           |Sz=1.00>
 <Sz=-1.00|(0.000000,56.634723)(-0.000000,-0.000000)(-0.000000,-0.000000)
 <Sz=0.00|(0.000000,-0.000000)(0.000000,-0.000000)(-0.000000,-0.000000)
 <Sz=1.00|(-0.000000,-0.000000)(0.000000,-0.000000)(0.000000,-56.634723)
_______________________________
 Mean-field SO (cm-1)
 Reduced matrix elements:
 <S|| Hso(L-) ||S'> = (-0.000000,0.000000)
 <S|| Hso(L0) ||S'> = (0.000000,-49.712017)
 <S|| Hso(L+) ||S'> = (-0.000000,-0.000000)

 Singlet part of <S|| Hso(L0) ||S'> = (0.000000,0.050067) (excluded from all matrix elements)
 L-/L+ Averaged reduced matrix elements:
 <S|| Hso(L-) ||S'> = (-0.000000,0.000000)
 <S|| Hso(L+) ||S'> = (-0.000000,-0.000000)

 SOCC = 49.712017


 Actual matrix elements:
       |Sz=-1.00>           |Sz=0.00>           |Sz=1.00>
 <Sz=-1.00|(0.000000,35.151704)(-0.000000,-0.000000)(-0.000000,-0.000000)
 <Sz=0.00|(0.000000,-0.000000)(0.000000,-0.000000)(-0.000000,-0.000000)
 <Sz=1.00|(-0.000000,-0.000000)(0.000000,-0.000000)(0.000000,-35.151704)
_______________________________

**************************************************

**************************************************
 State A: Root 0
 State B: Root 24


 Analysing Sz ans S^2 of the pair of states...
 Ket state:  Computed S^2 = 2.039661 will be treated as 2.000000 Sz = 1.000000
 Bra state:  Computed S^2 = 2.285709 will be treated as 2.000000 Sz = 1.000000
 Clebsh-Gordan coefficient: <1.000,1.000;1.000,0.000|1.000,1.000> = 0.707

_______________________________
 One-electron SO (cm-1)
 Reduced matrix elements:
 <S|| Hso(L-) ||S'> = (0.000000,0.000000)
 <S|| Hso(L0) ||S'> = (0.000000,0.000000)
 <S|| Hso(L+) ||S'> = (0.000000,-0.000000)

 SOCC = 0.000000


 Actual matrix elements:
       |Sz=-1.00>           |Sz=0.00>           |Sz=1.00>
 <Sz=-1.00|(-0.000000,-0.000000)(0.000000,-0.000000)(0.000000,-0.000000)
 <Sz=0.00|(-0.000000,-0.000000)(-0.000000,0.000000)(0.000000,-0.000000)
 <Sz=1.00|(0.000000,0.000000)(-0.000000,-0.000000)(-0.000000,0.000000)
_______________________________
 Mean-field SO (cm-1)
 Reduced matrix elements:
 <S|| Hso(L-) ||S'> = (0.000000,0.000000)
 <S|| Hso(L0) ||S'> = (0.000000,0.000000)
 <S|| Hso(L+) ||S'> = (0.000000,-0.000000)

 Singlet part of <S|| Hso(L0) ||S'> = (0.000000,0.000000) (excluded from all matrix elements)
 L-/L+ Averaged reduced matrix elements:
 <S|| Hso(L-) ||S'> = (0.000000,0.000000)
 <S|| Hso(L+) ||S'> = (0.000000,-0.000000)

 SOCC = 0.000000


 Actual matrix elements:
       |Sz=-1.00>           |Sz=0.00>           |Sz=1.00>
 <Sz=-1.00|(-0.000000,-0.000000)(0.000000,-0.000000)(0.000000,-0.000000)
 <Sz=0.00|(-0.000000,-0.000000)(-0.000000,0.000000)(0.000000,-0.000000)
 <Sz=1.00|(0.000000,0.000000)(-0.000000,-0.000000)(-0.000000,0.000000)
_______________________________

**************************************************

**************************************************
 State A: Root 0
 State B: Root 25


 Analysing Sz ans S^2 of the pair of states...
 Ket state:  Computed S^2 = 2.039661 will be treated as 2.000000 Sz = 1.000000
 Bra state:  Computed S^2 = 2.233783 will be treated as 2.000000 Sz = 1.000000
 Clebsh-Gordan coefficient: <1.000,1.000;1.000,0.000|1.000,1.000> = 0.707

_______________________________
 One-electron SO (cm-1)
 Reduced matrix elements:
 <S|| Hso(L-) ||S'> = (0.000000,-6.816498)
 <S|| Hso(L0) ||S'> = (0.000000,-0.000000)
 <S|| Hso(L+) ||S'> = (0.000000,6.816498)

 SOCC = 9.639983


 Actual matrix elements:
       |Sz=-1.00>           |Sz=0.00>           |Sz=1.00>
 <Sz=-1.00|(-0.000000,0.000000)(0.000000,4.819992)(0.000000,0.000000)
 <Sz=0.00|(-0.000000,4.819992)(-0.000000,-0.000000)(0.000000,4.819992)
 <Sz=1.00|(0.000000,-0.000000)(-0.000000,4.819992)(-0.000000,-0.000000)
_______________________________
 Mean-field SO (cm-1)
 Reduced matrix elements:
 <S|| Hso(L-) ||S'> = (0.000000,-4.309397)
 <S|| Hso(L0) ||S'> = (0.000000,-0.000000)
 <S|| Hso(L+) ||S'> = (0.000000,4.327038)

 Singlet part of <S|| Hso(L0) ||S'> = (-0.000000,-0.000000) (excluded from all matrix elements)
 L-/L+ Averaged reduced matrix elements:
 <S|| Hso(L-) ||S'> = (0.000000,-4.318218)
 <S|| Hso(L+) ||S'> = (0.000000,4.318218)

 SOCC = 6.106882


 Actual matrix elements:
       |Sz=-1.00>           |Sz=0.00>           |Sz=1.00>
 <Sz=-1.00|(-0.000000,0.000000)(0.000000,3.053441)(0.000000,0.000000)
 <Sz=0.00|(-0.000000,3.053441)(-0.000000,-0.000000)(0.000000,3.053441)
 <Sz=1.00|(0.000000,-0.000000)(-0.000000,3.053441)(-0.000000,-0.000000)
_______________________________

**************************************************

**************************************************
 State A: Root 0
 State B: Root 26


 Analysing Sz ans S^2 of the pair of states...
[...]
 <S|| Hso(L0) ||S'> = (0.000000,3.423596)
 <S|| Hso(L+) ||S'> = (-0.000000,-0.000000)

 SOCC = 3.423596


 Actual matrix elements:
       |Sz=-1.00>           |Sz=0.00>           |Sz=1.00>
 <Sz=-1.00|(0.000000,-2.420848)(-0.000000,-0.000000)(-0.000000,0.000000)
 <Sz=0.00|(0.000000,-0.000000)(0.000000,0.000000)(-0.000000,-0.000000)
 <Sz=1.00|(-0.000000,0.000000)(0.000000,-0.000000)(0.000000,2.420848)
_______________________________
 Mean-field SO (cm-1)
 Reduced matrix elements:
 <S|| Hso(L-) ||S'> = (-0.000000,0.000000)
 <S|| Hso(L0) ||S'> = (0.000000,2.180427)
 <S|| Hso(L+) ||S'> = (-0.000000,-0.000000)

 Singlet part of <S|| Hso(L0) ||S'> = (-0.000000,-0.001935) (excluded from all matrix elements)
 L-/L+ Averaged reduced matrix elements:
 <S|| Hso(L-) ||S'> = (-0.000000,0.000000)
 <S|| Hso(L+) ||S'> = (-0.000000,-0.000000)

 SOCC = 2.180427


 Actual matrix elements:
       |Sz=-1.00>           |Sz=0.00>           |Sz=1.00>
 <Sz=-1.00|(0.000000,-1.541795)(-0.000000,-0.000000)(-0.000000,0.000000)
 <Sz=0.00|(0.000000,-0.000000)(0.000000,0.000000)(-0.000000,-0.000000)
 <Sz=1.00|(-0.000000,0.000000)(0.000000,-0.000000)(0.000000,1.541795)
_______________________________

**************************************************

**************************************************
 State A: Root 48
 State B: Root 49


 Analysing Sz ans S^2 of the pair of states...
WARNING! The deviation of S^2 from the correct value is large, indicating a significant spin contamination. The results may be unreliable
 Ket state:  Computed S^2 = 3.205119 will be treated as 2.000000 Sz = 1.000000
WARNING! The deviation of S^2 from the correct value is large, indicating a significant spin contamination. The results may be unreliable
 Bra state:  Computed S^2 = 3.035396 will be treated as 2.000000 Sz = 1.000000
 Clebsh-Gordan coefficient: <1.000,1.000;1.000,0.000|1.000,1.000> = 0.707

_______________________________
 One-electron SO (cm-1)
 Reduced matrix elements:
 <S|| Hso(L-) ||S'> = (0.000000,0.000000)
 <S|| Hso(L0) ||S'> = (0.000000,6.927271)
 <S|| Hso(L+) ||S'> = (0.000000,-0.000000)

 SOCC = 6.927271


 Actual matrix elements:
       |Sz=-1.00>           |Sz=0.00>           |Sz=1.00>
 <Sz=-1.00|(-0.000000,-4.898321)(0.000000,-0.000000)(0.000000,0.000000)
 <Sz=0.00|(-0.000000,-0.000000)(-0.000000,0.000000)(0.000000,-0.000000)
 <Sz=1.00|(0.000000,0.000000)(-0.000000,-0.000000)(-0.000000,4.898321)
_______________________________
 Mean-field SO (cm-1)
 Reduced matrix elements:
 <S|| Hso(L-) ||S'> = (0.000000,0.000000)
 <S|| Hso(L0) ||S'> = (0.000000,4.482925)
 <S|| Hso(L+) ||S'> = (0.000000,-0.000000)

 Singlet part of <S|| Hso(L0) ||S'> = (0.000000,0.004542) (excluded from all matrix elements)
 L-/L+ Averaged reduced matrix elements:
 <S|| Hso(L-) ||S'> = (0.000000,0.000000)
 <S|| Hso(L+) ||S'> = (0.000000,-0.000000)

 SOCC = 4.482925


 Actual matrix elements:
       |Sz=-1.00>           |Sz=0.00>           |Sz=1.00>
 <Sz=-1.00|(-0.000000,-3.169906)(0.000000,-0.000000)(0.000000,0.000000)
 <Sz=0.00|(-0.000000,-0.000000)(-0.000000,0.000000)(0.000000,-0.000000)
 <Sz=1.00|(0.000000,0.000000)(-0.000000,-0.000000)(-0.000000,3.169906)
_______________________________

**************************************************

**************************************************
 State A: Root 48
 State B: Root 50


 Analysing Sz ans S^2 of the pair of states...
WARNING! The deviation of S^2 from the correct value is large, indicating a significant spin contamination. The results may be unreliable
 Ket state:  Computed S^2 = 3.205119 will be treated as 2.000000 Sz = 1.000000
 Bra state:  Computed S^2 = 2.130213 will be treated as 2.000000 Sz = 1.000000
 Clebsh-Gordan coefficient: <1.000,1.000;1.000,0.000|1.000,1.000> = 0.707

_______________________________
 One-electron SO (cm-1)
 Reduced matrix elements:
 <S|| Hso(L-) ||S'> = (-0.000000,-0.000000)
 <S|| Hso(L0) ||S'> = (0.000000,2.565507)
 <S|| Hso(L+) ||S'> = (-0.000000,0.000000)

 SOCC = 2.565507


 Actual matrix elements:
       |Sz=-1.00>           |Sz=0.00>           |Sz=1.00>
 <Sz=-1.00|(0.000000,-1.814088)(-0.000000,0.000000)(-0.000000,0.000000)
 <Sz=0.00|(0.000000,0.000000)(0.000000,0.000000)(-0.000000,0.000000)
 <Sz=1.00|(-0.000000,0.000000)(0.000000,0.000000)(0.000000,1.814088)
_______________________________
 Mean-field SO (cm-1)
 Reduced matrix elements:
 <S|| Hso(L-) ||S'> = (-0.000000,-0.000000)
 <S|| Hso(L0) ||S'> = (0.000000,1.675720)
 <S|| Hso(L+) ||S'> = (-0.000000,0.000000)

 Singlet part of <S|| Hso(L0) ||S'> = (-0.000000,-0.000267) (excluded from all matrix elements)
 L-/L+ Averaged reduced matrix elements:
 <S|| Hso(L-) ||S'> = (-0.000000,-0.000000)
 <S|| Hso(L+) ||S'> = (-0.000000,0.000000)

 SOCC = 1.675720


 Actual matrix elements:
       |Sz=-1.00>           |Sz=0.00>           |Sz=1.00>
 <Sz=-1.00|(0.000000,-1.184913)(-0.000000,0.000000)(-0.000000,0.000000)
 <Sz=0.00|(0.000000,0.000000)(0.000000,0.000000)(-0.000000,0.000000)
 <Sz=1.00|(-0.000000,0.000000)(0.000000,0.000000)(0.000000,1.184913)
_______________________________

**************************************************

**************************************************
 State A: Root 49
 State B: Root 50


 Analysing Sz ans S^2 of the pair of states...
WARNING! The deviation of S^2 from the correct value is large, indicating a significant spin contamination. The results may be unreliable
 Ket state:  Computed S^2 = 3.035396 will be treated as 2.000000 Sz = 1.000000
 Bra state:  Computed S^2 = 2.130213 will be treated as 2.000000 Sz = 1.000000
 Clebsh-Gordan coefficient: <1.000,1.000;1.000,0.000|1.000,1.000> = 0.707

_______________________________
 One-electron SO (cm-1)
 Reduced matrix elements:
 <S|| Hso(L-) ||S'> = (-0.000000,-0.000000)
 <S|| Hso(L0) ||S'> = (0.000000,-0.000000)
 <S|| Hso(L+) ||S'> = (-0.000000,0.000000)

 SOCC = 0.000000


 Actual matrix elements:
       |Sz=-1.00>           |Sz=0.00>           |Sz=1.00>
 <Sz=-1.00|(0.000000,0.000000)(-0.000000,0.000000)(-0.000000,0.000000)
 <Sz=0.00|(0.000000,0.000000)(0.000000,-0.000000)(-0.000000,0.000000)
 <Sz=1.00|(-0.000000,-0.000000)(0.000000,0.000000)(0.000000,-0.000000)
_______________________________
 Mean-field SO (cm-1)
 Reduced matrix elements:
 <S|| Hso(L-) ||S'> = (-0.000000,-0.000000)
 <S|| Hso(L0) ||S'> = (0.000000,-0.000000)
 <S|| Hso(L+) ||S'> = (-0.000000,0.000000)

 Singlet part of <S|| Hso(L0) ||S'> = (0.000000,0.000000) (excluded from all matrix elements)
 L-/L+ Averaged reduced matrix elements:
 <S|| Hso(L-) ||S'> = (-0.000000,-0.000000)
 <S|| Hso(L+) ||S'> = (-0.000000,0.000000)

 SOCC = 0.000000


 Actual matrix elements:
       |Sz=-1.00>           |Sz=0.00>           |Sz=1.00>
 <Sz=-1.00|(0.000000,0.000000)(-0.000000,0.000000)(-0.000000,0.000000)
 <Sz=0.00|(0.000000,0.000000)(0.000000,-0.000000)(-0.000000,0.000000)
 <Sz=1.00|(-0.000000,-0.000000)(0.000000,0.000000)(0.000000,-0.000000)
_______________________________

**************************************************


            *********SPIN-ORBIT COUPLING JOB ENDS HERE*********



 
 --------------------------------------------------------------
             Orbital Energies (a.u.) and Symmetries
 --------------------------------------------------------------
 
 Alpha MOs, Unrestricted
 -- Occupied --                  
-19.654 -19.652 -10.680 -10.671 -10.664 -10.664 -10.659 -10.659
  1 A1    2 A1    3 A1    4 A1    1 B1    5 A1    2 B1    6 A1                 
 -1.180  -1.156  -1.026  -0.955  -0.848  -0.768  -0.734  -0.618
  7 A1    8 A1    9 A1    3 B1   10 A1    4 B1   11 A1    5 B1                 
 -0.613  -0.588  -0.572  -0.542  -0.514  -0.489  -0.488  -0.483
 12 A1   13 A1    6 B1    1 B2   14 A1    7 B1   15 A1    2 B2                 
 -0.415  -0.405  -0.349  -0.347  -0.257
  1 A2    3 B2    8 B1    9 B1    4 B2                                         
 -- Virtual --                   
 -0.057   0.025   0.064   0.080   0.106   0.119   0.131   0.156
  2 A2    5 B2   16 A1   10 B1   17 A1   18 A1   11 B1    6 B2                 
  0.168   0.174   0.198   0.214   0.220   0.226   0.234   0.261
 19 A1   20 A1    7 B2   12 B1   13 B1   21 A1    3 A2   22 A1                 
  0.282   0.321   0.327   0.328   0.333   0.352   0.354   0.373
  8 B2   14 B1    4 A2   23 A1    9 B2   15 B1   24 A1   16 B1                 
  0.382   0.410   0.413   0.431   0.431   0.442   0.447   0.450
 25 A1   26 A1   10 B2   17 B1   27 A1   28 A1   29 A1   18 B1                 
  0.478   0.491   0.503   0.505   0.535   0.540   0.568   0.624
 11 B2   19 B1   30 A1   20 B1   31 A1   32 A1   21 B1   12 B2                 
  0.629   0.636   0.644   0.649   0.680   0.724   0.730   0.741
  5 A2   13 B2   33 A1   22 B1   23 B1    6 A2   34 A1   24 B1                 
  0.752   0.755   0.821   0.821   0.851   0.879   0.882   0.885
 25 B1   35 A1   36 A1    7 A2   14 B2   26 B1   37 A1   15 B2                 
  0.899   0.901   0.910   0.927   1.016   1.039   1.050   1.079
 27 B1   38 A1   39 A1   40 A1   28 B1   41 A1    8 A2   29 B1                 
  1.082   1.137   1.171   1.207   1.213   1.232   1.236   1.253
 42 A1   16 B2    9 A2   30 B1   17 B2   43 A1   31 B1   44 A1                 
  1.268   1.305   1.319   1.390   1.428   1.453   1.454   1.467
 18 B2   45 A1   32 B1   46 A1   19 B2   10 A2   33 B1   47 A1                 
  1.474   1.498   1.521   1.546   1.558   1.603   1.637   1.657
 11 A2   48 A1   34 B1   49 A1   20 B2   35 B1   50 A1   12 A2                 
  1.664   1.685   1.736   1.746   1.758   1.759   1.780   1.854
 51 A1   21 B2   52 A1   36 B1   13 A2   22 B2   53 A1   37 B1                 
  1.866   1.891   1.918   1.959   1.974   2.011   2.026   2.088
 23 B2   38 B1   54 A1   14 A2   15 A2   55 A1   24 B2   16 A2                 
  2.090   2.114   2.152   2.187   2.197   2.227   2.268   2.295
 39 B1   25 B2   40 B1   41 B1   56 A1   57 A1   58 A1   42 B1                 
  2.306   2.343   2.388   2.412   2.476   2.520   2.525   2.574
 59 A1   60 A1   17 A2   26 B2   43 B1   44 B1   61 A1   27 B2                 
  2.577   2.599   2.624   2.639   2.682   2.682   2.706   2.709
 45 B1   46 B1   62 A1   47 B1   63 A1   28 B2   48 B1   64 A1                 
  2.724   2.751   2.786   2.791   2.808   2.823   2.844   2.845
 65 A1   18 A2   29 B2   19 A2   49 B1   30 B2   66 A1   50 B1                 
  2.873   2.906   2.926   2.947   2.961   2.977   2.989   2.994
 31 B2   67 A1   32 B2   20 A2   68 A1   33 B2   69 A1   51 B1                 
  3.092   3.117   3.120   3.145   3.157   3.165   3.206   3.210
 70 A1   34 B2   71 A1   21 A2   22 A2   52 B1   35 B2   53 B1                 
  3.227   3.241   3.252   3.257   3.269   3.305   3.338   3.338
 72 A1   54 B1   73 A1   55 B1   23 A2   74 A1   75 A1   36 B2                 
  3.367   3.399   3.412   3.449   3.478   3.480   3.501   3.503
 24 A2   56 B1   25 A2   37 B2   76 A1   57 B1   77 A1   38 B2                 
  3.504   3.519   3.525   3.567   3.579   3.700   3.701   3.745
 58 B1   26 A2   39 B2   78 A1   79 A1   80 A1   59 B1   60 B1                 
  3.758   3.806   3.835   3.868   3.934   3.979   4.025   4.073
 27 A2   61 B1   40 B2   81 A1   62 B1   82 A1   63 B1   83 A1                 
  4.089   4.094   4.103   4.129   4.169   4.244   4.246   4.276
 64 B1   41 B2   28 A2   42 B2   84 A1   43 B2   85 A1   29 A2                 
  4.277   4.321   4.389   4.539   4.566   4.590   4.613   4.630
 86 A1   65 B1   66 B1   30 A2   87 A1   88 A1   44 B2   89 A1                 
  4.706   4.827   4.877   4.896   4.901   4.981   5.113   5.186
 67 B1   90 A1   68 B1   91 A1   69 B1   92 A1   70 B1   93 A1                 
  5.306   5.340   5.366   5.377   5.389   5.412   5.636   5.642
 71 B1   45 B2   46 B2   72 B1   73 B1   94 A1   74 B1   31 A2                 
  5.730   5.787   5.941   6.096   6.237   6.386   6.532   6.558
 32 A2   95 A1   96 A1   47 B2   48 B2   97 A1   33 A2   98 A1                 
  6.559   6.582   6.687   6.808   6.842   6.953   6.980   7.172
 34 A2   75 B1   99 A1  100 A1   76 B1   49 B2   50 B2   77 B1                 
  7.183   7.276   7.278  22.435  22.828  23.037  23.143  23.392
101 A1   78 B1  102 A1  103 A1   79 B1   80 B1  104 A1  105 A1                 
 23.779  44.436  44.517
106 A1  107 A1  108 A1                                                         
 
 Beta MOs, Unrestricted
 -- Occupied --                  
-19.643 -19.641 -10.681 -10.672 -10.658 -10.658 -10.653 -10.653
  1 A1    2 A1    3 A1    4 A1    1 B1    5 A1    2 B1    6 A1                 
 -1.163  -1.131  -0.999  -0.925  -0.827  -0.753  -0.723  -0.611
  7 A1    8 A1    9 A1    3 B1   10 A1    4 B1   11 A1    5 B1                 
 -0.604  -0.581  -0.567  -0.504  -0.485  -0.483  -0.477  -0.432
 12 A1   13 A1    6 B1   14 A1    7 B1    1 B2   15 A1    2 B2                 
 -0.339  -0.335  -0.295
  8 B1    9 B1    3 B2                                                         
 -- Virtual --                   
 -0.221  -0.076   0.016   0.067   0.074   0.082   0.108   0.122
  1 A2    4 B2    2 A2   16 A1    5 B2   10 B1   17 A1   18 A1                 
  0.133   0.170   0.176   0.181   0.212   0.217   0.225   0.228
 11 B1   19 A1   20 A1    6 B2    7 B2   12 B1   13 B1   21 A1                 
  0.250   0.265   0.303   0.325   0.334   0.335   0.347   0.357
  3 A2   22 A1    8 B2   14 B1   23 A1    9 B2    4 A2   24 A1                 
  0.364   0.376   0.395   0.415   0.422   0.433   0.438   0.446
 15 B1   16 B1   25 A1   26 A1   10 B2   27 A1   17 B1   28 A1                 
  0.449   0.458   0.493   0.502   0.505   0.508   0.540   0.544
 29 A1   18 B1   19 B1   11 B2   30 A1   20 B1   31 A1   32 A1                 
  0.569   0.644   0.647   0.648   0.649   0.653   0.684   0.741
 21 B1   12 B2    5 A2   33 A1   13 B2   22 B1   23 B1   34 A1                 
  0.743   0.743   0.753   0.758   0.829   0.832   0.863   0.881
  6 A2   24 B1   25 B1   35 A1   36 A1    7 A2   14 B2   26 B1                 
  0.887   0.901   0.905   0.905   0.914   0.929   1.032   1.042
 37 A1   27 B1   38 A1   15 B2   39 A1   40 A1   28 B1   41 A1                 
  1.063   1.085   1.088   1.149   1.181   1.208   1.223   1.239
  8 A2   29 B1   42 A1   16 B2    9 A2   30 B1   17 B2   43 A1                 
  1.246   1.257   1.287   1.309   1.323   1.394   1.448   1.455
 31 B1   44 A1   18 B2   45 A1   32 B1   46 A1   19 B2   33 B1                 
  1.469   1.470   1.503   1.503   1.526   1.555   1.565   1.608
 10 A2   47 A1   48 A1   11 A2   34 B1   49 A1   20 B2   35 B1                 
  1.644   1.668   1.680   1.693   1.743   1.750   1.768   1.772
 50 A1   51 A1   12 A2   21 B2   52 A1   36 B1   22 B2   13 A2                 
  1.785   1.864   1.882   1.895   1.923   1.972   1.986   2.019
 53 A1   37 B1   23 B2   38 B1   54 A1   14 A2   15 A2   55 A1                 
  2.040   2.095   2.096   2.130   2.160   2.190   2.209   2.234
 24 B2   39 B1   16 A2   25 B2   40 B1   41 B1   56 A1   57 A1                 
  2.274   2.304   2.310   2.350   2.406   2.425   2.481   2.525
 58 A1   42 B1   59 A1   60 A1   17 A2   26 B2   43 B1   44 B1                 
  2.535   2.582   2.600   2.607   2.630   2.646   2.687   2.696
 61 A1   45 B1   27 B2   46 B1   62 A1   47 B1   63 A1   28 B2                 
  2.709   2.713   2.727   2.762   2.797   2.808   2.812   2.842
 48 B1   64 A1   65 A1   18 A2   29 B2   19 A2   49 B1   30 B2                 
  2.848   2.853   2.892   2.923   2.948   2.958   2.968   2.994
 50 B1   66 A1   31 B2   67 A1   32 B2   20 A2   68 A1   33 B2                 
  2.995   3.010   3.097   3.124   3.126   3.159   3.173   3.179
 69 A1   51 B1   70 A1   34 B2   71 A1   21 A2   22 A2   52 B1                 
  3.215   3.225   3.231   3.246   3.257   3.259   3.275   3.314
 53 B1   35 B2   72 A1   54 B1   73 A1   55 B1   23 A2   74 A1                 
  3.345   3.347   3.378   3.403   3.425   3.468   3.485   3.486
 75 A1   36 B2   24 A2   56 B1   25 A2   37 B2   57 B1   76 A1                 
  3.505   3.508   3.516   3.533   3.540   3.573   3.583   3.703
 77 A1   58 B1   38 B2   26 A2   39 B2   78 A1   79 A1   80 A1                 
  3.706   3.750   3.770   3.809   3.844   3.875   3.939   3.983
 59 B1   60 B1   27 A2   61 B1   40 B2   81 A1   62 B1   82 A1                 
  4.032   4.078   4.098   4.105   4.114   4.140   4.174   4.250
 63 B1   83 A1   64 B1   41 B2   28 A2   42 B2   84 A1   85 A1                 
  4.259   4.281   4.292   4.326   4.393   4.554   4.574   4.597
 43 B2   86 A1   29 A2   65 B1   66 B1   30 A2   87 A1   88 A1                 
  4.625   4.633   4.711   4.833   4.884   4.902   4.905   4.986
 44 B2   89 A1   67 B1   90 A1   68 B1   91 A1   69 B1   92 A1                 
  5.118   5.194   5.311   5.361   5.385   5.393   5.409   5.415
 70 B1   93 A1   71 B1   45 B2   46 B2   72 B1   73 B1   94 A1                 
  5.642   5.657   5.742   5.800   5.952   6.118   6.253   6.396
 74 B1   31 A2   32 A2   95 A1   96 A1   47 B2   48 B2   97 A1                 
  6.565   6.568   6.586   6.587   6.720   6.833   6.845   6.983
 33 A2   98 A1   75 B1   34 A2   99 A1  100 A1   76 B1   49 B2                 
  7.002   7.176   7.195   7.280   7.288  22.440  22.833  23.042
 50 B2   77 B1  101 A1   78 B1  102 A1  103 A1   79 B1   80 B1                 
 23.147  23.391  23.779  44.444  44.525
104 A1  105 A1  106 A1  107 A1  108 A1                                         
 --------------------------------------------------------------
 
          Ground-State Mulliken Net Atomic Charges

     Atom                 Charge (a.u.)    Spin (a.u.)
  --------------------------------------------------------
      1 O                    -0.443375       0.390194
      2 C                     0.245930      -0.077118
      3 C                    -0.078827       0.391981
      4 C                    -0.078827       0.391981
      5 C                    -0.075554       0.377527
      6 C                    -0.075554       0.377527
      7 C                     0.223789      -0.054183
      8 O                    -0.407211       0.273775
      9 H                     0.176774      -0.017952
     10 H                     0.176774      -0.017952
     11 H                     0.168041      -0.017889
     12 H                     0.168041      -0.017889
  --------------------------------------------------------
  Sum of atomic charges =     0.000000
  Sum of spin   charges =     2.000000

 -----------------------------------------------------------------
                    Cartesian Multipole Moments
 -----------------------------------------------------------------
    Charge (ESU x 10^10)
                -0.0000
    Dipole Moment (Debye)
         X       0.0000      Y      -0.0000      Z      -0.0299
       Tot       0.0299
    Quadrupole Moments (Debye-Ang)
        XX     -32.9501     XY      -0.0000     YY     -45.3608
        XZ      -0.0000     YZ       0.0000     ZZ     -71.8720
    Octopole Moments (Debye-Ang^2)
       XXX      -0.0000    XXY      -0.0000    XYY       0.0000
       YYY      -0.0000    XXZ       1.0230    XYZ       0.0000
       YYZ      -0.0973    XZZ      -0.0000    YZZ       0.0000
       ZZZ      -1.2581
    Hexadecapole Moments (Debye-Ang^3)
      XXXX    -244.6292   XXXY      -0.0000   XXYY     -60.8965
      XYYY      -0.0000   YYYY     -46.5210   XXXZ      -0.0000
      XXYZ       0.0000   XYYZ       0.0000   YYYZ       0.0000
      XXZZ    -158.6520   XYZZ      -0.0000   YYZZ    -132.3940
      XZZZ      -0.0000   YZZZ      -0.0000   ZZZZ   -1004.8609
 -----------------------------------------------------------------
 Total job time:  3450.55s(wall), 3402.11s(cpu) 
 Mon Dec  4 20:46:34 2023

        *************************************************************
        *                                                           *
        *  Thank you very much for using Q-Chem.  Have a nice day.  *
        *                                                           *
        *************************************************************


