                  Welcome to Q-Chem
     A Quantum Leap Into The Future Of Chemistry


 Q-Chem 6.0 (devel), Q-Chem, Inc., Pleasanton, CA (2022)

 E. Epifanovsky,  A. T. B. Gilbert,  Xintian Feng,  Joonho Lee,  Yuezhi Mao,  
 N. Mardirossian,  P. Pokhilko,  A. White,  M. Wormit,  M. P. Coons,  
 A. L. Dempwolff,  Zhengting Gan,  D. Hait,  P. R. Horn,  L. D. Jacobson,  
 I. Kaliman,  J. Kussmann,  A. W. Lange,  Ka Un Lao,  D. S. Levine,  Jie Liu,  
 S. C. McKenzie,  A. F. Morrison,  K. Nanda,  F. Plasser,  D. R. Rehn,  
 M. L. Vidal,  Zhi-Qiang You,  Ying Zhu,  B. Alam,  B. Albrecht,  
 A. Aldossary,  E. Alguire,  J. H. Andersen,  V. Athavale,  D. Barton,  
 K. Begam,  A. Behn,  N. Bellonzi,  Y. A. Bernard,  E. J. Berquist,  
 H. Burton,  A. Carreras,  K. Carter-Fenk,  Romit Chakraborty,  
 Chandrima Chakravarty,  Junhan Chen,  A. D. Chien,  K. D. Closser,  
 V. Cofer-Shabica,  L. Cunha,  S. Dasgupta,  Jia Deng,  M. de Wergifosse,  
 M. Diedenhofen,  Hainam Do,  S. Ehlert,  Po-Tung Fang,  S. Fatehi,  
 Qingguo Feng,  T. Friedhoff,  B. Ganoe,  J. Gayvert,  Qinghui Ge,  
 G. Gidofalvi,  M. Goldey,  J. Gomes,  C. Gonzalez-Espinoza,  S. Gulania,  
 A. Gunina,  J. A. Gyamfi,  M. W. D. Hanson-Heine,  P. H. P. Harbach,  
 A. W. Hauser,  M. F. Herbst,  M. Hernandez Vera,  M. Hodecker,  
 Z. C. Holden,  S. Houck,  Xunkun Huang,  Kerwin Hui,  B. C. Huynh,  
 K. Ikeda,  M. Ivanov,  Hyunjun Ji,  Zuxin Jin,  Hanjie Jiang,  B. Kaduk,  
 S. Kaehler,  R. Kang,  K. Khistyaev,  Jaehoon Kim,  Yongbin Kim,  
 P. Klunzinger,  Z. Koczor-Benda,  Joong Hoon Koh,  D. Kosenkov,  
 Saikiran Kotaru,  L. Koulias,  T. Kowalczyk,  C. M. Krauter,  K. Kue,  
 A. Kunitsa,  T. Kus,  A. Landau,  K. V. Lawler,  D. Lefrancois,  S. Lehtola,  
 Rain Li,  Shaozhi Li,  Yi-Pei Li,  Jiashu Liang,  M. Liebenthal,  
 Hung-Hsuan Lin,  You-Sheng Lin,  Fenglai Liu,  Kuan-Yu Liu,  
 M. Loipersberger,  A. Luenser,  C. Malbon,  A. Manjanath,  P. Manohar,  
 E. Mansoor,  S. F. Manzer,  Shan-Ping Mao,  A. V. Marenich,  T. Markovich,  
 S. Mason,  F. Matz,  S. A. Maurer,  P. F. McLaughlin,  M. F. S. J. Menger,  
 J.-M. Mewes,  S. A. Mewes,  P. Morgante,  Mohammad Mostafanejad,  
 J. W. Mullinax,  K. J. Oosterbaan,  G. Paran,  V. Parravicini,  
 Alexander C. Paul,  Suranjan K. Paul,  F. Pavosevic,  Zheng Pei,  S. Prager,  
 E. I. Proynov,  E. Ramos,  B. Rana,  A. E. Rask,  A. Rettig,  R. M. Richard,  
 F. Rob,  E. Rossomme,  T. Scheele,  M. Scheurer,  M. Schneider,  
 P. E. Schneider,  N. Sergueev,  S. M. Sharada,  Hengyuan Shen,  
 W. Skomorowski,  D. W. Small,  C. J. Stein,  Yingli Su,  Yu-Chuan Su,  
 E. J. Sundstrom,  Zhen Tao,  J. Thirman,  Hung-Yi Tsai,  T. Tsuchimochi,  
 N. M. Tubman,  C. Utku,  S. P. Veccham,  O. Vydrov,  J. Wenzel,  
 Jonathan Wong,  J. Witte,  A. Yamada,  Chou-Hsun Yang,  Kun Yao,  
 S. Yeganeh,  S. R. Yost,  A. Zech,  F. Zeller,  Igor Ying Zhang,  
 Xing Zhang,  Yu Zhang,  D. Zuev,  A. Aspuru-Guzik,  A. T. Bell,  
 N. A. Besley,  K. B. Bravaya,  B. R. Brooks,  D. Casanova,  Jeng-Da Chai,  
 Hsing-Ta Chen,  S. Coriani,  C. J. Cramer,  A. E. DePrince, III,  
 R. A. DiStasio Jr.,  A. Dreuw,  B. D. Dunietz,  T. R. Furlani,  
 W. A. Goddard III,  S. Grimme,  S. Hammes-Schiffer,  T. Head-Gordon,  
 W. J. Hehre,  Chao-Ping Hsu,  T.-C. Jagau,  Yousung Jung,  A. Klamt,  
 Jing Kong,  D. S. Lambrecht,  Xiangyuan Li,  WanZhen Liang,  N. J. Mayhall,  
 C. W. McCurdy,  J. B. Neaton,  T. Neudecker,  C. Ochsenfeld,  
 J. A. Parkhill,  R. Peverati,  V. A. Rassolov,  Haisheng Ren,  Yihan Shao,  
 L. V. Slipchenko,  R. P. Steele,  J. E. Subotnik,  A. J. W. Thom,  
 A. Tkatchenko,  D. G. Truhlar,  T. Van Voorhis,  Fan Wang,  
 T. A. Wesolowski,  K. B. Whaley,  H. L. Woodcock III,  P. M. Zimmerman,  
 S. Faraji,  P. M. W. Gill,  M. Head-Gordon,  J. M. Herbert,  A. I. Krylov

 Contributors to earlier versions of Q-Chem not listed above: 
 R. D. Adamson,  B. Austin,  R. Baer,  J. Baker,  G. J. O. Beran,  
 K. Brandhorst,  S. T. Brown,  E. F. C. Byrd,  Arup K. Chakraborty,  
 G. K. L. Chan,  Chun-Min Chang,  Yunqing Chen,  C.-L. Cheng,  
 Siu Hung Chien,  D. M. Chipman,  D. L. Crittenden,  H. Dachsel,  
 R. J. Doerksen,  A. D. Dutoi,  R. G. Edgar,  J. Fosso-Tande,  
 L. Fusti-Molnar,  D. Ghosh,  A. Ghysels,  A. Golubeva-Zadorozhnaya,  
 J. Gonthier,  M. S. Gordon,  S. R. Gwaltney,  G. Hawkins,  J. E. Herr,  
 A. Heyden,  S. Hirata,  E. G. Hohenstein,  G. Kedziora,  F. J. Keil,  
 C. Kelley,  Jihan Kim,  R. A. King,  R. Z. Khaliullin,  P. P. Korambath,  
 W. Kurlancheek,  A. Laurent,  A. M. Lee,  M. S. Lee,  S. V. Levchenko,  
 Ching Yeh Lin,  D. Liotard,  E. Livshits,  R. C. Lochan,  I. Lotan,  
 L. A. Martinez-Martinez,  P. E. Maslen,  N. Nair,  D. P. O'Neill,  
 D. Neuhauser,  E. Neuscamman,  C. M. Oana,  R. Olivares-Amaya,  R. Olson,  
 T. M. Perrine,  B. Peters,  P. A. Pieniazek,  A. Prociuk,  Y. M. Rhee,  
 J. Ritchie,  M. A. Rohrdanz,  E. Rosta,  N. J. Russ,  H. F. Schaefer III,  
 M. W. Schmidt,  N. E. Schultz,  S. Sharma,  N. Shenvi,  C. D. Sherrill,  
 A. C. Simmonett,  A. Sodt,  T. Stein,  D. Stuck,  K. S. Thanthiriwatte,  
 V. Vanovschi,  L. Vogt,  Tao Wang,  A. Warshel,  M. A. Watson,  
 C. F. Williams,  Q. Wu,  X. Xu,  Jun Yang,  W. Zhang,  Yan Zhao

   Please cite Q-Chem as follows:
  "Software for the frontiers of quantum chemistry:
   An overview of developments in the Q-Chem 5 package"
   J. Chem. Phys. 155, 084801 (2021)
   https://doi.org/10.1063/5.0055522 (open access)

 Q-Chem 6.0.1 for Intel X86 EM64T Linux

 Parts of Q-Chem use Armadillo 9.900.5 (Nocturnal Misbehaviour).
 http://arma.sourceforge.net/

 Q-Chem begins on Wed Oct 25 18:15:22 2023  

 Host: atlas-121
0

     Scratch files written to ./qchem183421//
 Processing $rem in /scratch/abel/SOFTWARE/qchem/config/preferences:
 Processing $rem in /dipc/acebg/.qchemrc:

 Checking the input file for inconsistencies... 	...done.

--------------------------------------------------------------
User input:
--------------------------------------------------------------
$comment
 RAS-SF CALCULATION
$end

$molecule
1 2    !charge and multiplicity
O1
H1 O1 oh
H2 O1 oh H1 hoh

oh = 0.997
hoh = 109.17
$end

$rem
!**CALCULATION TYPE***     
JOBTYPE            sp    
EXCHANGE           HF
CORRELATION        RASCI    !RASCI=Casanova; RASCI2=Zimmerman
BASIS              STO-3G

!***SCF REFERENCE***
UNRESTRICTED       FALSE
!SCF_ALGORITHM      DIIS_GDM !DIIS,DM,DIIS_DM,GDM,DIIS_GDM,GD
SCF_FINAL_PRINT     1 !0,1,2,3

!****RAS-SF****
RAS_ROOTS          5       !number of RAS-CI roots to be computed
SET_ITER           30     !number of iterations in RASCI
RAS_ELEC           10       !number of electrons in RAS2
RAS_ELEC_ALPHA     7      !spin-α electrons in RAS2 
RAS_ELEC_BETA      3      !spin-β electrons in RAS2
RAS_ACT            7       !number of orbitals in RAS2 
RAS_OCC            0       !number of orbitals in RAS1
CALC_SOC           TRUE   !calculate SOC for EOM-CC, RAS-CI, ADC, TDDFT/TDA and TDDFT
RAS_SOC_SYM_DENS   TRUE   !averaging of α and β densities
$end                                           
--------------------------------------------------------------
 ----------------------------------------------------------------
             Standard Nuclear Orientation (Angstroms)
    I     Atom           X                Y                Z
 ----------------------------------------------------------------
    1      O       0.0000000000     0.0000000000     0.1155512138
    2      H      -0.8125311840    -0.0000000000    -0.4622048550
    3      H       0.8125311840    -0.0000000000    -0.4622048550
 ----------------------------------------------------------------
 Molecular Point Group                 C2v   NOp =  4
 Largest Abelian Subgroup              C2v   NOp =  4
 Nuclear Repulsion Energy =           8.81794733 hartrees
 There are        5 alpha and        4 beta electrons
 Requested basis set is STO-3G
 There are 4 shells and 7 basis functions

 Total QAlloc Memory Limit   2000 MB
 Mega-Array Size       188 MB
 MEM_STATIC part       192 MB


                       Distance Matrix (Angstroms)
             O (  1)   H (  2)
   H (  2)  0.997000
   H (  3)  0.997000  1.625062
 
 A cutoff of  1.0D-09 yielded     10 shell pairs
 There are        34 function pairs
 Smallest overlap matrix eigenvalue = 3.69E-01

 Scale SEOQF with 1.000000e+00/1.000000e+00/1.000000e+00

 Standard Electronic Orientation quadrupole field applied
 Nucleus-field energy     =    -0.0000000001 hartrees
 Guess from superposition of atomic densities
 Warning:  Energy on first SCF cycle will be non-variational
 SAD guess density has 10.000000 electrons

 -----------------------------------------------------------------------
  General SCF calculation program by
  Eric Jon Sundstrom, Paul Horn, Yuezhi Mao, Dmitri Zuev, Alec White,
  David Stuck, Shaama M.S., Shane Yost, Joonho Lee, David Small,
  Daniel Levine, Susi Lehtola, Hugh Burton, Evgeny Epifanovsky,
  Bang C. Huynh
 -----------------------------------------------------------------------
 Hartree-Fock
 Orthonormalizing orbitals
 A restricted open-shell SCF calculation will be
 performed using GDM
 SCF converges when RMS gradient is below 1.0e-05
 ---------------------------------------
  Cycle       Energy        RMS Gradient
 ---------------------------------------
    1     -73.3635147193      7.08e-01   Descent step
    2     -73.6056312366      4.80e-01   Descent step
    3     -73.7368520924      2.15e-01   Normal BFGS step
Fro norm of D 1.079978425681e+00
transformation scaled by 2
    4     -73.7696809423      2.77e-01   Dog-leg BFGS step
    5     -74.1964929694      7.07e-01   Descent step
    6     -74.4164926355      4.43e-01   Descent step
    7     -74.5374703874      2.36e-01   Dog-leg BFGS step
    8     -74.5869005122      4.17e-02   Normal BFGS step
    9     -74.5890447905      4.57e-03   Normal BFGS step
   10     -74.5890695625      6.95e-04   Normal BFGS step
   11     -74.5890704876      8.08e-05   Normal BFGS step
   12     -74.5890704947      1.48e-05   Normal BFGS step
   13     -74.5890704950      2.79e-06  Convergence criterion met
The disked orbital energies are calculated using alpha and beta Focks
 ---------------------------------------
 Alpha HF Exchange    Energy =  -4.62961310953730
 Beta HF Exchange     Energy =  -3.95691977215189
 Nuclear Attraction   Energy =   0.00000000000000
 One-Electron (alpha) Energy = -61.65834291337190
 One-Electron (beta)  Energy = -54.46822629887320
 Total Coulomb        Energy =  41.30608427296401
 Final Alpha MO Eigenvalues
            1           2           3           4           5           6
    1 -20.9564318  -1.8227426  -1.1498602  -0.9724427  -1.1353990   0.0748869
            7
    1   0.1811098
 Final Beta MO Eigenvalues
            1           2           3           4           5           6
    1 -20.9279095  -1.6999410  -1.1068727  -0.9158670  -0.2917864   0.1236627
            7
    1   0.2328730
 SCF time:   CPU 0.08s  wall 0.00s 
<S^2> =          0.750000000
 SCF   energy in the final basis set =      -74.5890704950
 Total energy in the final basis set =      -74.5890704950
  
     ##========================================##
     ||                                        ||
     ||              R A S M A N 2             ||
     ||________________________________________||
     ||                                        ||
     ||  Author:                               ||
     ||                                        ||
     ||        David Casanova (2010)           ||
     ||                                        ||
     ##========================================##
  
  ***************************************************
  *  RAS-CI Dimensions:                             *
  *                                                 *
  *  Active Elec.:  10 ( 7, 3)   Active Orb.:   7   *
  *  Doubly Occ. :   0           Doubly Vir.:   0   *
  *  Frozen Occ. :   0           Frozen Vir.:   0   *
  *                                                 *
  *  Total CI configurations:        35             * 
  *    Active configurations:        35             * 
  *      Hole configurations:         0             * 
  *  Particle configurations:         0             * 
  *                                                 *
  *   Requested states:        5                    *
  *  Spin multiplicity: Any multiplicity            *
  *                                                 *
  ***************************************************
  
 
Direct CI diagonalization
 ---------------------------------------------------
 Iter    Rts Conv    Rts Left    Ttl Dev     Max Dev
 ---------------------------------------------------
   1         0           5      0.055006    0.017101
   2         0           5      0.093675    0.032771
   3         0           5      0.009418    0.002686
   4         0           5      0.009170    0.002657
   5         1           4      0.000250    0.000107
   6         4           1      0.000042    0.000042
   7         5           0      0.000001    0.000000    Roots Converged
 ---------------------------------------------------
   
**************************************************
 RAS-CI total energy for state   1:    -74.162088046364
  Excitation energy (eV) =  0.000000000000
  State symmetry: A2    (C2v      )
  <S^2>      :  6.0000
  Dipole Moment:    0.0000 X    -0.0000 Y    -0.6238 Z
  Amplitudes : 
  
 | HOLE  | ALPHA   | BETA    | PART  |    AMPLITUDE 
--------------------------------------------------
 |       | 1111111 | 1110000 |       |     9.8902668561624E-01
 |       | 1111111 | 1010100 |       |    -1.1776231813471E-01
--------------------------------------------------
*** Contributions RASCI wfn    Active: 100.00
                                 Hole:   0.00
                                 Part:   0.00

      Mulliken population analysis 
 ---------------------------------------------------
   Atom    Charge (a.u.)   Spin (a.u.)  
 ---------------------------------------------------
   1  O    0.370360        2.370360 
   2  H   -0.185180        0.814820 
   3  H   -0.185180        0.814820 
 ---------------------------------------------------
   Sum:   -0.000000        4.000000 
 ---------------------------------------------------
 
  
**************************************************
 RAS-CI total energy for state   2:    -74.061437392382
  Excitation energy (eV) =  2.738843642849
  State symmetry: B2    (C2v      )
  <S^2>      :  6.0000
  Dipole Moment:   -0.0000 X    -0.0000 Y    -0.3021 Z
  Trans. Moment:   -0.1636 X    -0.0000 Y    -0.0000 Z
  Strength   :  0.001796
  Amplitudes : 
  
 | HOLE  | ALPHA   | BETA    | PART  |    AMPLITUDE 
--------------------------------------------------
 |       | 1111111 | 1100100 |       |     9.9948200698301E-01
--------------------------------------------------
*** Contributions RASCI wfn    Active: 100.00
                                 Hole:   0.00
                                 Part:   0.00

      Mulliken population analysis 
 ---------------------------------------------------
   Atom    Charge (a.u.)   Spin (a.u.)  
 ---------------------------------------------------
   1  O    0.211481        2.211481 
   2  H   -0.105741        0.894259 
   3  H   -0.105741        0.894259 
 ---------------------------------------------------
   Sum:   -0.000000        4.000000 
 ---------------------------------------------------
 
  
**************************************************
 RAS-CI total energy for state   3:    -73.991636708769
  Excitation energy (eV) =  4.638216881062
  State symmetry: A1    (C2v      )
  <S^2>      :  6.0000
  Dipole Moment:    0.0000 X     0.0000 Y    -0.3703 Z
  Trans. Moment:   -0.0000 X    -0.0000 Y     0.0000 Z
  Strength   :  0.000000
  Amplitudes : 
  
 | HOLE  | ALPHA   | BETA    | PART  |    AMPLITUDE 
--------------------------------------------------
 |       | 1111111 | 1101000 |       |     9.9363893719986E-01
 |       | 1111111 | 1001100 |       |    -1.1200817133513E-01
--------------------------------------------------
*** Contributions RASCI wfn    Active: 100.00
                                 Hole:   0.00
                                 Part:   0.00

      Mulliken population analysis 
 ---------------------------------------------------
   Atom    Charge (a.u.)   Spin (a.u.)  
 ---------------------------------------------------
   1  O    0.102285        2.102285 
   2  H   -0.051143        0.948857 
   3  H   -0.051143        0.948857 
 ---------------------------------------------------
   Sum:   -0.000000        4.000000 
 ---------------------------------------------------
 
  
**************************************************
 RAS-CI total energy for state   4:    -73.482492786505
  Excitation energy (eV) = 18.492727901359
  State symmetry: A2    (C2v      )
  <S^2>      :  6.0000
  Dipole Moment:    0.0000 X    -0.0000 Y    -0.4102 Z
  Trans. Moment:   -0.0000 X     0.0000 Y    -0.6694 Z
  Strength   :  0.202994
  Amplitudes : 
  
 | HOLE  | ALPHA   | BETA    | PART  |    AMPLITUDE 
--------------------------------------------------
 |       | 1111111 | 1110000 |       |     1.1660431897192E-01
 |       | 1111111 | 1010100 |       |     9.9220201857628E-01
--------------------------------------------------
*** Contributions RASCI wfn    Active: 100.00
                                 Hole:   0.00
                                 Part:   0.00

      Mulliken population analysis 
 ---------------------------------------------------
   Atom    Charge (a.u.)   Spin (a.u.)  
 ---------------------------------------------------
   1  O    0.402793        2.402793 
   2  H   -0.201396        0.798604 
   3  H   -0.201396        0.798604 
 ---------------------------------------------------
   Sum:   -0.000000        4.000000 
 ---------------------------------------------------
 
  
**************************************************
 RAS-CI total energy for state   5:    -73.413180881366
  Excitation energy (eV) = 20.378800800585
  State symmetry: B1    (C2v      )
  <S^2>      :  6.0000
  Dipole Moment:    0.0000 X     0.0000 Y    -0.4777 Z
  Trans. Moment:   -0.0000 X    -0.6342 Y    -0.0000 Z
  Strength   :  0.200801
  Amplitudes : 
  
 | HOLE  | ALPHA   | BETA    | PART  |    AMPLITUDE 
--------------------------------------------------
 |       | 1111111 | 1011000 |       |     9.9955142749234E-01
--------------------------------------------------
*** Contributions RASCI wfn    Active: 100.00
                                 Hole:   0.00
                                 Part:   0.00

      Mulliken population analysis 
 ---------------------------------------------------
   Atom    Charge (a.u.)   Spin (a.u.)  
 ---------------------------------------------------
   1  O    0.308263        2.308263 
   2  H   -0.154131        0.845869 
   3  H   -0.154131        0.845869 
 ---------------------------------------------------
   Sum:   -0.000000        4.000000 
 ---------------------------------------------------
 
  
--------------------------------------------------
 Interstate Transition Properties
--------------------------------------------------
State A: Root  1
State B: Root  2
  
Angular momentum components
< B | Lx | A > =    -0.000000000i
< B | Ly | A > =    -0.941144649i
< B | Lz | A > =    -0.000000000i
  
Norm of one-particle transition density matrix
||gamma^AB||_total       =  0.999861
||gamma^AB||_symmetrized =  0.707794
||gamma^AB||_anti-symm   =  0.706221
  
Spin-orbit couplings
 Using HF (reference) density for the 2-elec mean-field SOC contribution
KET: S',Sz' (Root   1) =  2.000 2.000
BRA: S ,Sz  (Root   2) =  2.000 2.000
 1e Reduced matrix elements (cm-1)
<S|| Hso(L-) ||S'> =   -53.3640860647    -0.0000000000
<S|| Hso(L0) ||S'> =     0.0000000000     0.0000000000
<S|| Hso(L+) ||S'> =   -53.3640860647     0.0000000000
 1-elec SOC matrix (cm-1): < B(S,Sz) | Hso(1e) | A(S',Sz') >
                     |Sz'=-2.00>              |Sz'=-1.00>              |Sz'= 0.00>              |Sz'= 1.00>              |Sz'= 2.00>
 <Sz=-2.00|    0.000000   -0.000000i   -30.809769    0.000000i    -0.000000    0.000000i     0.000000    0.000000i     0.000000    0.000000i
 <Sz=-1.00|   30.809769    0.000000i    -0.000000   -0.000000i   -37.734107    0.000000i     0.000000    0.000000i     0.000000    0.000000i
 <Sz= 0.00|    0.000000    0.000000i    37.734107    0.000000i    -0.000000    0.000000i   -37.734107    0.000000i     0.000000    0.000000i
 <Sz= 1.00|    0.000000    0.000000i     0.000000    0.000000i    37.734107    0.000000i     0.000000    0.000000i   -30.809769    0.000000i
 <Sz= 2.00|    0.000000    0.000000i     0.000000    0.000000i     0.000000    0.000000i    30.809769    0.000000i     0.000000    0.000000i
1-elec SOCC =    97.429045661 cm-1
 Averagin spin alpha/beta reference densities
 2e-SOMF Reduced matrix elements (cm-1)
<S|| Hso(L-) ||S'> =    22.9471202269     0.0000000000
<S|| Hso(L0) ||S'> =     0.0000000000    -0.0000000000
<S|| Hso(L+) ||S'> =    22.9471202269    -0.0000000000
 2-elec mean-field SOC matrix (cm-1): < B(S,Sz) | Hso(2e-mf) | A(S',Sz') >
                     |Sz'=-2.00>              |Sz'=-1.00>              |Sz'= 0.00>              |Sz'= 1.00>              |Sz'= 2.00>
 <Sz=-2.00|   -0.000000    0.000000i    13.248526   -0.000000i     0.000000   -0.000000i     0.000000    0.000000i     0.000000    0.000000i
 <Sz=-1.00|  -13.248526   -0.000000i     0.000000    0.000000i    16.226064   -0.000000i     0.000000    0.000000i     0.000000    0.000000i
 <Sz= 0.00|   -0.000000   -0.000000i   -16.226064   -0.000000i     0.000000   -0.000000i    16.226064   -0.000000i     0.000000    0.000000i
 <Sz= 1.00|    0.000000    0.000000i     0.000000    0.000000i   -16.226064   -0.000000i     0.000000   -0.000000i    13.248526   -0.000000i
 <Sz= 2.00|    0.000000    0.000000i     0.000000    0.000000i     0.000000    0.000000i   -13.248526   -0.000000i     0.000000   -0.000000i
 Total mean-field SOC matrix (cm-1): < B(S,Sz) | Hsomf | A(S',Sz') >
                     |Sz'=-2.00>              |Sz'=-1.00>              |Sz'= 0.00>              |Sz'= 1.00>              |Sz'= 2.00>
 <Sz=-2.00|    0.000000   -0.000000i   -17.561243    0.000000i    -0.000000    0.000000i     0.000000    0.000000i     0.000000    0.000000i
 <Sz=-1.00|   17.561243    0.000000i    -0.000000   -0.000000i   -21.508043    0.000000i     0.000000    0.000000i     0.000000    0.000000i
 <Sz= 0.00|    0.000000    0.000000i    21.508043    0.000000i    -0.000000    0.000000i   -21.508043    0.000000i     0.000000    0.000000i
 <Sz= 1.00|    0.000000    0.000000i     0.000000    0.000000i    21.508043    0.000000i     0.000000    0.000000i   -17.561243    0.000000i
 <Sz= 2.00|    0.000000    0.000000i     0.000000    0.000000i     0.000000    0.000000i    17.561243    0.000000i     0.000000    0.000000i
Mean-Field SOCC =    55.533527734 cm-1
   
**************************************************
State A: Root  1
State B: Root  3
  
Angular momentum components
< B | Lx | A > =     0.000000000i
< B | Ly | A > =    -0.000000000i
< B | Lz | A > =     0.953857405i
  
Norm of one-particle transition density matrix
||gamma^AB||_total       =  0.999450
||gamma^AB||_symmetrized =  0.706718
||gamma^AB||_anti-symm   =  0.706718
  
Spin-orbit couplings
 Using HF (reference) density for the 2-elec mean-field SOC contribution
KET: S',Sz' (Root   1) =  2.000 2.000
BRA: S ,Sz  (Root   3) =  2.000 2.000
 1e Reduced matrix elements (cm-1)
<S|| Hso(L-) ||S'> =    -0.0000000000     0.0000000000
<S|| Hso(L0) ||S'> =     0.0000000000   -83.5356574980
<S|| Hso(L+) ||S'> =    -0.0000000000    -0.0000000000
 1-elec SOC matrix (cm-1): < B(S,Sz) | Hso(1e) | A(S',Sz') >
                     |Sz'=-2.00>              |Sz'=-1.00>              |Sz'= 0.00>              |Sz'= 1.00>              |Sz'= 2.00>
 <Sz=-2.00|    0.000000   68.206579i    -0.000000   -0.000000i    -0.000000   -0.000000i     0.000000    0.000000i     0.000000    0.000000i
 <Sz=-1.00|    0.000000   -0.000000i    -0.000000   34.103289i    -0.000000   -0.000000i     0.000000    0.000000i     0.000000    0.000000i
 <Sz= 0.00|    0.000000   -0.000000i     0.000000   -0.000000i    -0.000000   -0.000000i    -0.000000   -0.000000i     0.000000    0.000000i
 <Sz= 1.00|    0.000000    0.000000i     0.000000    0.000000i     0.000000   -0.000000i     0.000000  -34.103289i    -0.000000   -0.000000i
 <Sz= 2.00|    0.000000    0.000000i     0.000000    0.000000i     0.000000    0.000000i     0.000000   -0.000000i     0.000000  -68.206579i
1-elec SOCC =   107.844070101 cm-1
 2e-SOMF Reduced matrix elements (cm-1)
<S|| Hso(L-) ||S'> =     0.0000000000    -0.0000000000
<S|| Hso(L0) ||S'> =     0.0000000000    31.6676741221
<S|| Hso(L+) ||S'> =     0.0000000000     0.0000000000
 2-elec mean-field SOC matrix (cm-1): < B(S,Sz) | Hso(2e-mf) | A(S',Sz') >
                     |Sz'=-2.00>              |Sz'=-1.00>              |Sz'= 0.00>              |Sz'= 1.00>              |Sz'= 2.00>
 <Sz=-2.00|   -0.000000  -25.856548i     0.000000    0.000000i     0.000000    0.000000i     0.000000    0.000000i     0.000000    0.000000i
 <Sz=-1.00|   -0.000000    0.000000i     0.000000  -12.928274i     0.000000    0.000000i     0.000000    0.000000i     0.000000    0.000000i
 <Sz= 0.00|   -0.000000    0.000000i    -0.000000    0.000000i     0.000000    0.000000i     0.000000    0.000000i     0.000000    0.000000i
 <Sz= 1.00|    0.000000    0.000000i     0.000000    0.000000i    -0.000000    0.000000i     0.000000   12.928274i     0.000000    0.000000i
 <Sz= 2.00|    0.000000    0.000000i     0.000000    0.000000i     0.000000    0.000000i    -0.000000    0.000000i     0.000000   25.856548i
 Total mean-field SOC matrix (cm-1): < B(S,Sz) | Hsomf | A(S',Sz') >
                     |Sz'=-2.00>              |Sz'=-1.00>              |Sz'= 0.00>              |Sz'= 1.00>              |Sz'= 2.00>
 <Sz=-2.00|    0.000000   42.350031i    -0.000000   -0.000000i    -0.000000   -0.000000i     0.000000    0.000000i     0.000000    0.000000i
 <Sz=-1.00|    0.000000   -0.000000i    -0.000000   21.175016i    -0.000000   -0.000000i     0.000000    0.000000i     0.000000    0.000000i
 <Sz= 0.00|    0.000000   -0.000000i     0.000000   -0.000000i    -0.000000   -0.000000i    -0.000000   -0.000000i     0.000000    0.000000i
 <Sz= 1.00|    0.000000    0.000000i     0.000000    0.000000i     0.000000   -0.000000i     0.000000  -21.175016i    -0.000000   -0.000000i
 <Sz= 2.00|    0.000000    0.000000i     0.000000    0.000000i     0.000000    0.000000i     0.000000   -0.000000i     0.000000  -42.350031i
Mean-Field SOCC =    66.961278605 cm-1
   
**************************************************
State A: Root  1
State B: Root  4
  
Angular momentum components
< B | Lx | A > =     0.000000000i
< B | Ly | A > =     0.000000000i
< B | Lz | A > =     0.000000000i
  
Norm of one-particle transition density matrix
||gamma^AB||_total       =  0.998491
||gamma^AB||_symmetrized =  0.706228
||gamma^AB||_anti-symm   =  0.705852
  
Spin-orbit couplings
 Using HF (reference) density for the 2-elec mean-field SOC contribution
KET: S',Sz' (Root   1) =  2.000 2.000
BRA: S ,Sz  (Root   4) =  2.000 2.000
 1e Reduced matrix elements (cm-1)
<S|| Hso(L-) ||S'> =     0.0000000000     0.0000000000
<S|| Hso(L0) ||S'> =     0.0000000000    -0.0000000000
<S|| Hso(L+) ||S'> =     0.0000000000    -0.0000000000
 1-elec SOC matrix (cm-1): < B(S,Sz) | Hso(1e) | A(S',Sz') >
                     |Sz'=-2.00>              |Sz'=-1.00>              |Sz'= 0.00>              |Sz'= 1.00>              |Sz'= 2.00>
 <Sz=-2.00|   -0.000000    0.000000i     0.000000   -0.000000i     0.000000   -0.000000i     0.000000    0.000000i     0.000000    0.000000i
 <Sz=-1.00|   -0.000000   -0.000000i     0.000000    0.000000i     0.000000   -0.000000i     0.000000    0.000000i     0.000000    0.000000i
 <Sz= 0.00|   -0.000000   -0.000000i    -0.000000   -0.000000i     0.000000   -0.000000i     0.000000   -0.000000i     0.000000    0.000000i
 <Sz= 1.00|    0.000000    0.000000i     0.000000    0.000000i    -0.000000   -0.000000i     0.000000   -0.000000i     0.000000   -0.000000i
 <Sz= 2.00|    0.000000    0.000000i     0.000000    0.000000i     0.000000    0.000000i    -0.000000   -0.000000i     0.000000   -0.000000i
1-elec SOCC =     0.000000000 cm-1
 2e-SOMF Reduced matrix elements (cm-1)
<S|| Hso(L-) ||S'> =    -0.0000000000    -0.0000000000
<S|| Hso(L0) ||S'> =     0.0000000000     0.0000000000
<S|| Hso(L+) ||S'> =    -0.0000000000     0.0000000000
 2-elec mean-field SOC matrix (cm-1): < B(S,Sz) | Hso(2e-mf) | A(S',Sz') >
                     |Sz'=-2.00>              |Sz'=-1.00>              |Sz'= 0.00>              |Sz'= 1.00>              |Sz'= 2.00>
 <Sz=-2.00|    0.000000   -0.000000i    -0.000000    0.000000i    -0.000000    0.000000i     0.000000    0.000000i     0.000000    0.000000i
 <Sz=-1.00|    0.000000    0.000000i    -0.000000   -0.000000i    -0.000000    0.000000i     0.000000    0.000000i     0.000000    0.000000i
 <Sz= 0.00|    0.000000    0.000000i     0.000000    0.000000i    -0.000000    0.000000i    -0.000000    0.000000i     0.000000    0.000000i
 <Sz= 1.00|    0.000000    0.000000i     0.000000    0.000000i     0.000000    0.000000i     0.000000    0.000000i    -0.000000    0.000000i
 <Sz= 2.00|    0.000000    0.000000i     0.000000    0.000000i     0.000000    0.000000i     0.000000    0.000000i     0.000000    0.000000i
 Total mean-field SOC matrix (cm-1): < B(S,Sz) | Hsomf | A(S',Sz') >
                     |Sz'=-2.00>              |Sz'=-1.00>              |Sz'= 0.00>              |Sz'= 1.00>              |Sz'= 2.00>
 <Sz=-2.00|   -0.000000    0.000000i     0.000000   -0.000000i     0.000000   -0.000000i     0.000000    0.000000i     0.000000    0.000000i
 <Sz=-1.00|   -0.000000   -0.000000i     0.000000    0.000000i     0.000000   -0.000000i     0.000000    0.000000i     0.000000    0.000000i
 <Sz= 0.00|   -0.000000   -0.000000i    -0.000000   -0.000000i     0.000000   -0.000000i     0.000000   -0.000000i     0.000000    0.000000i
 <Sz= 1.00|    0.000000    0.000000i     0.000000    0.000000i    -0.000000   -0.000000i     0.000000   -0.000000i     0.000000   -0.000000i
 <Sz= 2.00|    0.000000    0.000000i     0.000000    0.000000i     0.000000    0.000000i    -0.000000   -0.000000i     0.000000   -0.000000i
Mean-Field SOCC =     0.000000000 cm-1
   
**************************************************
State A: Root  1
State B: Root  5
  
Angular momentum components
< B | Lx | A > =    -0.031600739i
< B | Ly | A > =     0.000000000i
< B | Lz | A > =    -0.000000000i
  
Norm of one-particle transition density matrix
||gamma^AB||_total       =  0.998114
||gamma^AB||_symmetrized =  0.705773
||gamma^AB||_anti-symm   =  0.705773
  
Spin-orbit couplings
 Using HF (reference) density for the 2-elec mean-field SOC contribution
KET: S',Sz' (Root   1) =  2.000 2.000
BRA: S ,Sz  (Root   5) =  2.000 2.000
 1e Reduced matrix elements (cm-1)
<S|| Hso(L-) ||S'> =     0.0000000000    -5.5230263581
<S|| Hso(L0) ||S'> =     0.0000000000    -0.0000000000
<S|| Hso(L+) ||S'> =     0.0000000000     5.5230263581
 1-elec SOC matrix (cm-1): < B(S,Sz) | Hso(1e) | A(S',Sz') >
                     |Sz'=-2.00>              |Sz'=-1.00>              |Sz'= 0.00>              |Sz'= 1.00>              |Sz'= 2.00>
 <Sz=-2.00|   -0.000000    0.000000i     0.000000    3.188721i     0.000000    0.000000i     0.000000    0.000000i     0.000000    0.000000i
 <Sz=-1.00|   -0.000000    3.188721i     0.000000    0.000000i     0.000000    3.905369i     0.000000    0.000000i     0.000000    0.000000i
 <Sz= 0.00|   -0.000000    0.000000i    -0.000000    3.905369i     0.000000    0.000000i     0.000000    3.905369i     0.000000    0.000000i
 <Sz= 1.00|    0.000000    0.000000i     0.000000    0.000000i    -0.000000    3.905369i     0.000000   -0.000000i     0.000000    3.188721i
 <Sz= 2.00|    0.000000    0.000000i     0.000000    0.000000i     0.000000    0.000000i    -0.000000    3.188721i     0.000000   -0.000000i
1-elec SOCC =    10.083620407 cm-1
 2e-SOMF Reduced matrix elements (cm-1)
<S|| Hso(L-) ||S'> =    -0.0000000000     2.0644322024
<S|| Hso(L0) ||S'> =     0.0000000000     0.0000000000
<S|| Hso(L+) ||S'> =    -0.0000000000    -2.0644322024
 2-elec mean-field SOC matrix (cm-1): < B(S,Sz) | Hso(2e-mf) | A(S',Sz') >
                     |Sz'=-2.00>              |Sz'=-1.00>              |Sz'= 0.00>              |Sz'= 1.00>              |Sz'= 2.00>
 <Sz=-2.00|    0.000000   -0.000000i    -0.000000   -1.191900i    -0.000000   -0.000000i     0.000000    0.000000i     0.000000    0.000000i
 <Sz=-1.00|    0.000000   -1.191900i    -0.000000   -0.000000i    -0.000000   -1.459774i     0.000000    0.000000i     0.000000    0.000000i
 <Sz= 0.00|    0.000000   -0.000000i     0.000000   -1.459774i    -0.000000   -0.000000i    -0.000000   -1.459774i     0.000000    0.000000i
 <Sz= 1.00|    0.000000    0.000000i     0.000000    0.000000i     0.000000   -1.459774i     0.000000    0.000000i    -0.000000   -1.191900i
 <Sz= 2.00|    0.000000    0.000000i     0.000000    0.000000i     0.000000    0.000000i     0.000000   -1.191900i     0.000000    0.000000i
 Total mean-field SOC matrix (cm-1): < B(S,Sz) | Hsomf | A(S',Sz') >
                     |Sz'=-2.00>              |Sz'=-1.00>              |Sz'= 0.00>              |Sz'= 1.00>              |Sz'= 2.00>
 <Sz=-2.00|   -0.000000    0.000000i     0.000000    1.996820i     0.000000    0.000000i     0.000000    0.000000i     0.000000    0.000000i
 <Sz=-1.00|   -0.000000    1.996820i     0.000000    0.000000i     0.000000    2.445595i     0.000000    0.000000i     0.000000    0.000000i
 <Sz= 0.00|   -0.000000    0.000000i    -0.000000    2.445595i     0.000000    0.000000i     0.000000    2.445595i     0.000000    0.000000i
 <Sz= 1.00|    0.000000    0.000000i     0.000000    0.000000i    -0.000000    2.445595i     0.000000   -0.000000i     0.000000    1.996820i
 <Sz= 2.00|    0.000000    0.000000i     0.000000    0.000000i     0.000000    0.000000i    -0.000000    1.996820i     0.000000   -0.000000i
Mean-Field SOCC =     6.314500121 cm-1
   
**************************************************
State A: Root  2
State B: Root  1
  
Angular momentum components
< B | Lx | A > =     0.000000000i
< B | Ly | A > =     0.941144649i
< B | Lz | A > =     0.000000000i
  
Norm of one-particle transition density matrix
||gamma^AB||_total       =  0.999861
||gamma^AB||_symmetrized =  0.707794
||gamma^AB||_anti-symm   =  0.706221
  
Spin-orbit couplings
 Using HF (reference) density for the 2-elec mean-field SOC contribution
KET: S',Sz' (Root   2) =  2.000 2.000
BRA: S ,Sz  (Root   1) =  2.000 2.000
 1e Reduced matrix elements (cm-1)
<S|| Hso(L-) ||S'> =    53.3640860647     0.0000000000
<S|| Hso(L0) ||S'> =     0.0000000000    -0.0000000000
<S|| Hso(L+) ||S'> =    53.3640860647    -0.0000000000
 1-elec SOC matrix (cm-1): < B(S,Sz) | Hso(1e) | A(S',Sz') >
                     |Sz'=-2.00>              |Sz'=-1.00>              |Sz'= 0.00>              |Sz'= 1.00>              |Sz'= 2.00>
 <Sz=-2.00|   -0.000000    0.000000i    30.809769   -0.000000i     0.000000   -0.000000i     0.000000    0.000000i     0.000000    0.000000i
 <Sz=-1.00|  -30.809769   -0.000000i     0.000000    0.000000i    37.734107   -0.000000i     0.000000    0.000000i     0.000000    0.000000i
 <Sz= 0.00|   -0.000000   -0.000000i   -37.734107   -0.000000i     0.000000   -0.000000i    37.734107   -0.000000i     0.000000    0.000000i
 <Sz= 1.00|    0.000000    0.000000i     0.000000    0.000000i   -37.734107   -0.000000i     0.000000   -0.000000i    30.809769   -0.000000i
 <Sz= 2.00|    0.000000    0.000000i     0.000000    0.000000i     0.000000    0.000000i   -30.809769   -0.000000i     0.000000   -0.000000i
1-elec SOCC =    97.429045661 cm-1
 2e-SOMF Reduced matrix elements (cm-1)
<S|| Hso(L-) ||S'> =   -22.9471202269    -0.0000000000
<S|| Hso(L0) ||S'> =     0.0000000000     0.0000000000
<S|| Hso(L+) ||S'> =   -22.9471202269     0.0000000000
 2-elec mean-field SOC matrix (cm-1): < B(S,Sz) | Hso(2e-mf) | A(S',Sz') >
                     |Sz'=-2.00>              |Sz'=-1.00>              |Sz'= 0.00>              |Sz'= 1.00>              |Sz'= 2.00>
 <Sz=-2.00|    0.000000   -0.000000i   -13.248526    0.000000i    -0.000000    0.000000i     0.000000    0.000000i     0.000000    0.000000i
 <Sz=-1.00|   13.248526    0.000000i    -0.000000   -0.000000i   -16.226064    0.000000i     0.000000    0.000000i     0.000000    0.000000i
 <Sz= 0.00|    0.000000    0.000000i    16.226064    0.000000i    -0.000000    0.000000i   -16.226064    0.000000i     0.000000    0.000000i
 <Sz= 1.00|    0.000000    0.000000i     0.000000    0.000000i    16.226064    0.000000i     0.000000    0.000000i   -13.248526    0.000000i
 <Sz= 2.00|    0.000000    0.000000i     0.000000    0.000000i     0.000000    0.000000i    13.248526    0.000000i     0.000000    0.000000i
 Total mean-field SOC matrix (cm-1): < B(S,Sz) | Hsomf | A(S',Sz') >
                     |Sz'=-2.00>              |Sz'=-1.00>              |Sz'= 0.00>              |Sz'= 1.00>              |Sz'= 2.00>
 <Sz=-2.00|   -0.000000    0.000000i    17.561243   -0.000000i     0.000000   -0.000000i     0.000000    0.000000i     0.000000    0.000000i
 <Sz=-1.00|  -17.561243   -0.000000i     0.000000    0.000000i    21.508043   -0.000000i     0.000000    0.000000i     0.000000    0.000000i
 <Sz= 0.00|   -0.000000   -0.000000i   -21.508043   -0.000000i     0.000000   -0.000000i    21.508043   -0.000000i     0.000000    0.000000i
 <Sz= 1.00|    0.000000    0.000000i     0.000000    0.000000i   -21.508043   -0.000000i     0.000000   -0.000000i    17.561243   -0.000000i
 <Sz= 2.00|    0.000000    0.000000i     0.000000    0.000000i     0.000000    0.000000i   -17.561243   -0.000000i     0.000000   -0.000000i
Mean-Field SOCC =    55.533527734 cm-1
   
**************************************************
State A: Root  2
State B: Root  3
  
Angular momentum components
< B | Lx | A > =    -0.981859932i
< B | Ly | A > =     0.000000000i
< B | Lz | A > =     0.000000000i
  
Norm of one-particle transition density matrix
||gamma^AB||_total       =  0.999602
||gamma^AB||_symmetrized =  0.706826
||gamma^AB||_anti-symm   =  0.706826
  
Spin-orbit couplings
 Using HF (reference) density for the 2-elec mean-field SOC contribution
KET: S',Sz' (Root   2) =  2.000 2.000
BRA: S ,Sz  (Root   3) =  2.000 2.000
 1e Reduced matrix elements (cm-1)
<S|| Hso(L-) ||S'> =     0.0000000000   -65.3195249567
<S|| Hso(L0) ||S'> =     0.0000000000    -0.0000000001
<S|| Hso(L+) ||S'> =     0.0000000000    65.3195249567
 1-elec SOC matrix (cm-1): < B(S,Sz) | Hso(1e) | A(S',Sz') >
                     |Sz'=-2.00>              |Sz'=-1.00>              |Sz'= 0.00>              |Sz'= 1.00>              |Sz'= 2.00>
 <Sz=-2.00|   -0.000000    0.000000i     0.000000   37.712245i     0.000000    0.000000i     0.000000    0.000000i     0.000000    0.000000i
 <Sz=-1.00|   -0.000000   37.712245i     0.000000    0.000000i     0.000000   46.187879i     0.000000    0.000000i     0.000000    0.000000i
 <Sz= 0.00|   -0.000000    0.000000i    -0.000000   46.187879i     0.000000    0.000000i     0.000000   46.187879i     0.000000    0.000000i
 <Sz= 1.00|    0.000000    0.000000i     0.000000    0.000000i    -0.000000   46.187879i     0.000000   -0.000000i     0.000000   37.712245i
 <Sz= 2.00|    0.000000    0.000000i     0.000000    0.000000i     0.000000    0.000000i    -0.000000   37.712245i     0.000000   -0.000000i
1-elec SOCC =   119.256590881 cm-1
 2e-SOMF Reduced matrix elements (cm-1)
<S|| Hso(L-) ||S'> =    -0.0000000000    25.7264884963
<S|| Hso(L0) ||S'> =     0.0000000000     0.0000000000
<S|| Hso(L+) ||S'> =    -0.0000000000   -25.7264884963
 2-elec mean-field SOC matrix (cm-1): < B(S,Sz) | Hso(2e-mf) | A(S',Sz') >
                     |Sz'=-2.00>              |Sz'=-1.00>              |Sz'= 0.00>              |Sz'= 1.00>              |Sz'= 2.00>
 <Sz=-2.00|    0.000000   -0.000000i    -0.000000  -14.853195i    -0.000000   -0.000000i     0.000000    0.000000i     0.000000    0.000000i
 <Sz=-1.00|    0.000000  -14.853195i    -0.000000   -0.000000i    -0.000000  -18.191374i     0.000000    0.000000i     0.000000    0.000000i
 <Sz= 0.00|    0.000000   -0.000000i     0.000000  -18.191374i    -0.000000   -0.000000i    -0.000000  -18.191374i     0.000000    0.000000i
 <Sz= 1.00|    0.000000    0.000000i     0.000000    0.000000i     0.000000  -18.191374i     0.000000    0.000000i    -0.000000  -14.853195i
 <Sz= 2.00|    0.000000    0.000000i     0.000000    0.000000i     0.000000    0.000000i     0.000000  -14.853195i     0.000000    0.000000i
 Total mean-field SOC matrix (cm-1): < B(S,Sz) | Hsomf | A(S',Sz') >
                     |Sz'=-2.00>              |Sz'=-1.00>              |Sz'= 0.00>              |Sz'= 1.00>              |Sz'= 2.00>
 <Sz=-2.00|   -0.000000    0.000000i     0.000000   22.859050i     0.000000    0.000000i     0.000000    0.000000i     0.000000    0.000000i
 <Sz=-1.00|   -0.000000   22.859050i     0.000000    0.000000i     0.000000   27.996505i     0.000000    0.000000i     0.000000    0.000000i
 <Sz= 0.00|   -0.000000    0.000000i    -0.000000   27.996505i     0.000000    0.000000i     0.000000   27.996505i     0.000000    0.000000i
 <Sz= 1.00|    0.000000    0.000000i     0.000000    0.000000i    -0.000000   27.996505i     0.000000   -0.000000i     0.000000   22.859050i
 <Sz= 2.00|    0.000000    0.000000i     0.000000    0.000000i     0.000000    0.000000i    -0.000000   22.859050i     0.000000   -0.000000i
Mean-Field SOCC =    72.286663965 cm-1
   
**************************************************
State A: Root  2
State B: Root  4
  
Angular momentum components
< B | Lx | A > =    -0.000000000i
< B | Ly | A > =    -0.010730188i
< B | Lz | A > =     0.000000000i
  
Norm of one-particle transition density matrix
||gamma^AB||_total       =  0.999801
||gamma^AB||_symmetrized =  0.706760
||gamma^AB||_anti-symm   =  0.707173
  
Spin-orbit couplings
 Using HF (reference) density for the 2-elec mean-field SOC contribution
KET: S',Sz' (Root   2) =  2.000 2.000
BRA: S ,Sz  (Root   4) =  2.000 2.000
 1e Reduced matrix elements (cm-1)
<S|| Hso(L-) ||S'> =    -2.9448099797    -0.0000000000
<S|| Hso(L0) ||S'> =     0.0000000000    -0.0000000000
<S|| Hso(L+) ||S'> =    -2.9448099797     0.0000000000
 1-elec SOC matrix (cm-1): < B(S,Sz) | Hso(1e) | A(S',Sz') >
                     |Sz'=-2.00>              |Sz'=-1.00>              |Sz'= 0.00>              |Sz'= 1.00>              |Sz'= 2.00>
 <Sz=-2.00|    0.000000    0.000000i    -1.700187    0.000000i    -0.000000    0.000000i     0.000000    0.000000i     0.000000    0.000000i
 <Sz=-1.00|    1.700187    0.000000i    -0.000000    0.000000i    -2.082295    0.000000i     0.000000    0.000000i     0.000000    0.000000i
 <Sz= 0.00|    0.000000    0.000000i     2.082295    0.000000i    -0.000000   -0.000000i    -2.082295    0.000000i     0.000000    0.000000i
 <Sz= 1.00|    0.000000    0.000000i     0.000000    0.000000i     2.082295    0.000000i     0.000000   -0.000000i    -1.700187    0.000000i
 <Sz= 2.00|    0.000000    0.000000i     0.000000    0.000000i     0.000000    0.000000i     1.700187    0.000000i     0.000000   -0.000000i
1-elec SOCC =     5.376462845 cm-1
 2e-SOMF Reduced matrix elements (cm-1)
<S|| Hso(L-) ||S'> =     1.3169928203     0.0000000000
<S|| Hso(L0) ||S'> =     0.0000000000     0.0000000000
<S|| Hso(L+) ||S'> =     1.3169928203    -0.0000000000
 2-elec mean-field SOC matrix (cm-1): < B(S,Sz) | Hso(2e-mf) | A(S',Sz') >
                     |Sz'=-2.00>              |Sz'=-1.00>              |Sz'= 0.00>              |Sz'= 1.00>              |Sz'= 2.00>
 <Sz=-2.00|   -0.000000   -0.000000i     0.760366   -0.000000i     0.000000   -0.000000i     0.000000    0.000000i     0.000000    0.000000i
 <Sz=-1.00|   -0.760366   -0.000000i     0.000000   -0.000000i     0.931255   -0.000000i     0.000000    0.000000i     0.000000    0.000000i
 <Sz= 0.00|   -0.000000   -0.000000i    -0.931255   -0.000000i     0.000000    0.000000i     0.931255   -0.000000i     0.000000    0.000000i
 <Sz= 1.00|    0.000000    0.000000i     0.000000    0.000000i    -0.931255   -0.000000i     0.000000    0.000000i     0.760366   -0.000000i
 <Sz= 2.00|    0.000000    0.000000i     0.000000    0.000000i     0.000000    0.000000i    -0.760366   -0.000000i     0.000000    0.000000i
 Total mean-field SOC matrix (cm-1): < B(S,Sz) | Hsomf | A(S',Sz') >
                     |Sz'=-2.00>              |Sz'=-1.00>              |Sz'= 0.00>              |Sz'= 1.00>              |Sz'= 2.00>
 <Sz=-2.00|    0.000000    0.000000i    -0.939821    0.000000i    -0.000000    0.000000i     0.000000    0.000000i     0.000000    0.000000i
 <Sz=-1.00|    0.939821    0.000000i    -0.000000    0.000000i    -1.151041    0.000000i     0.000000    0.000000i     0.000000    0.000000i
 <Sz= 0.00|    0.000000    0.000000i     1.151041    0.000000i    -0.000000   -0.000000i    -1.151041    0.000000i     0.000000    0.000000i
 <Sz= 1.00|    0.000000    0.000000i     0.000000    0.000000i     1.151041    0.000000i     0.000000   -0.000000i    -0.939821    0.000000i
 <Sz= 2.00|    0.000000    0.000000i     0.000000    0.000000i     0.000000    0.000000i     0.939821    0.000000i     0.000000   -0.000000i
Mean-Field SOCC =     2.971973926 cm-1
   
**************************************************
State A: Root  2
State B: Root  5
  
Angular momentum components
< B | Lx | A > =    -0.000000000i
< B | Ly | A > =     0.000000000i
< B | Lz | A > =    -0.008773505i
  
Norm of one-particle transition density matrix
||gamma^AB||_total       =  0.025034
||gamma^AB||_symmetrized =  0.017702
||gamma^AB||_anti-symm   =  0.017702
  
Spin-orbit couplings
 Using HF (reference) density for the 2-elec mean-field SOC contribution
KET: S',Sz' (Root   2) =  2.000 2.000
BRA: S ,Sz  (Root   5) =  2.000 2.000
 1e Reduced matrix elements (cm-1)
<S|| Hso(L-) ||S'> =     0.0000000000    -0.0000000000
<S|| Hso(L0) ||S'> =     0.0000000000     1.9212827887
<S|| Hso(L+) ||S'> =     0.0000000000     0.0000000000
 1-elec SOC matrix (cm-1): < B(S,Sz) | Hso(1e) | A(S',Sz') >
                     |Sz'=-2.00>              |Sz'=-1.00>              |Sz'= 0.00>              |Sz'= 1.00>              |Sz'= 2.00>
 <Sz=-2.00|   -0.000000   -1.568721i     0.000000    0.000000i     0.000000    0.000000i     0.000000    0.000000i     0.000000    0.000000i
 <Sz=-1.00|   -0.000000    0.000000i     0.000000   -0.784360i     0.000000    0.000000i     0.000000    0.000000i     0.000000    0.000000i
 <Sz= 0.00|   -0.000000    0.000000i    -0.000000    0.000000i     0.000000    0.000000i     0.000000    0.000000i     0.000000    0.000000i
 <Sz= 1.00|    0.000000    0.000000i     0.000000    0.000000i    -0.000000    0.000000i     0.000000    0.784360i     0.000000    0.000000i
 <Sz= 2.00|    0.000000    0.000000i     0.000000    0.000000i     0.000000    0.000000i    -0.000000    0.000000i     0.000000    1.568721i
1-elec SOCC =     2.480365415 cm-1
 2e-SOMF Reduced matrix elements (cm-1)
<S|| Hso(L-) ||S'> =    -0.0000000000     0.0000000000
<S|| Hso(L0) ||S'> =     0.0000000000    -0.6643440330
<S|| Hso(L+) ||S'> =    -0.0000000000    -0.0000000000
 2-elec mean-field SOC matrix (cm-1): < B(S,Sz) | Hso(2e-mf) | A(S',Sz') >
                     |Sz'=-2.00>              |Sz'=-1.00>              |Sz'= 0.00>              |Sz'= 1.00>              |Sz'= 2.00>
 <Sz=-2.00|    0.000000    0.542435i    -0.000000   -0.000000i    -0.000000   -0.000000i     0.000000    0.000000i     0.000000    0.000000i
 <Sz=-1.00|    0.000000   -0.000000i    -0.000000    0.271217i    -0.000000   -0.000000i     0.000000    0.000000i     0.000000    0.000000i
 <Sz= 0.00|    0.000000   -0.000000i     0.000000   -0.000000i    -0.000000   -0.000000i    -0.000000   -0.000000i     0.000000    0.000000i
 <Sz= 1.00|    0.000000    0.000000i     0.000000    0.000000i     0.000000   -0.000000i     0.000000   -0.271217i    -0.000000   -0.000000i
 <Sz= 2.00|    0.000000    0.000000i     0.000000    0.000000i     0.000000    0.000000i     0.000000   -0.000000i     0.000000   -0.542435i
 Total mean-field SOC matrix (cm-1): < B(S,Sz) | Hsomf | A(S',Sz') >
                     |Sz'=-2.00>              |Sz'=-1.00>              |Sz'= 0.00>              |Sz'= 1.00>              |Sz'= 2.00>
 <Sz=-2.00|   -0.000000   -1.026286i     0.000000    0.000000i     0.000000    0.000000i     0.000000    0.000000i     0.000000    0.000000i
 <Sz=-1.00|   -0.000000    0.000000i     0.000000   -0.513143i     0.000000    0.000000i     0.000000    0.000000i     0.000000    0.000000i
 <Sz= 0.00|   -0.000000    0.000000i    -0.000000    0.000000i     0.000000    0.000000i     0.000000    0.000000i     0.000000    0.000000i
 <Sz= 1.00|    0.000000    0.000000i     0.000000    0.000000i    -0.000000    0.000000i     0.000000    0.513143i     0.000000    0.000000i
 <Sz= 2.00|    0.000000    0.000000i     0.000000    0.000000i     0.000000    0.000000i    -0.000000    0.000000i     0.000000    1.026286i
Mean-Field SOCC =     1.622700956 cm-1
   
**************************************************
State A: Root  3
State B: Root  1
  
Angular momentum components
< B | Lx | A > =    -0.000000000i
< B | Ly | A > =     0.000000000i
< B | Lz | A > =    -0.953857405i
  
Norm of one-particle transition density matrix
||gamma^AB||_total       =  0.999450
||gamma^AB||_symmetrized =  0.706718
||gamma^AB||_anti-symm   =  0.706718
  
Spin-orbit couplings
 Using HF (reference) density for the 2-elec mean-field SOC contribution
KET: S',Sz' (Root   3) =  2.000 2.000
BRA: S ,Sz  (Root   1) =  2.000 2.000
 1e Reduced matrix elements (cm-1)
<S|| Hso(L-) ||S'> =     0.0000000000    -0.0000000000
<S|| Hso(L0) ||S'> =     0.0000000000    83.5356574980
<S|| Hso(L+) ||S'> =     0.0000000000     0.0000000000
 1-elec SOC matrix (cm-1): < B(S,Sz) | Hso(1e) | A(S',Sz') >
                     |Sz'=-2.00>              |Sz'=-1.00>              |Sz'= 0.00>              |Sz'= 1.00>              |Sz'= 2.00>
 <Sz=-2.00|   -0.000000  -68.206579i     0.000000    0.000000i     0.000000    0.000000i     0.000000    0.000000i     0.000000    0.000000i
 <Sz=-1.00|   -0.000000    0.000000i     0.000000  -34.103289i     0.000000    0.000000i     0.000000    0.000000i     0.000000    0.000000i
 <Sz= 0.00|   -0.000000    0.000000i    -0.000000    0.000000i     0.000000    0.000000i     0.000000    0.000000i     0.000000    0.000000i
 <Sz= 1.00|    0.000000    0.000000i     0.000000    0.000000i    -0.000000    0.000000i     0.000000   34.103289i     0.000000    0.000000i
 <Sz= 2.00|    0.000000    0.000000i     0.000000    0.000000i     0.000000    0.000000i    -0.000000    0.000000i     0.000000   68.206579i
1-elec SOCC =   107.844070101 cm-1
 2e-SOMF Reduced matrix elements (cm-1)
<S|| Hso(L-) ||S'> =    -0.0000000000     0.0000000000
<S|| Hso(L0) ||S'> =     0.0000000000   -31.6676741221
<S|| Hso(L+) ||S'> =    -0.0000000000    -0.0000000000
 2-elec mean-field SOC matrix (cm-1): < B(S,Sz) | Hso(2e-mf) | A(S',Sz') >
                     |Sz'=-2.00>              |Sz'=-1.00>              |Sz'= 0.00>              |Sz'= 1.00>              |Sz'= 2.00>
 <Sz=-2.00|    0.000000   25.856548i    -0.000000   -0.000000i    -0.000000   -0.000000i     0.000000    0.000000i     0.000000    0.000000i
 <Sz=-1.00|    0.000000   -0.000000i    -0.000000   12.928274i    -0.000000   -0.000000i     0.000000    0.000000i     0.000000    0.000000i
 <Sz= 0.00|    0.000000   -0.000000i     0.000000   -0.000000i    -0.000000   -0.000000i    -0.000000   -0.000000i     0.000000    0.000000i
 <Sz= 1.00|    0.000000    0.000000i     0.000000    0.000000i     0.000000   -0.000000i     0.000000  -12.928274i    -0.000000   -0.000000i
 <Sz= 2.00|    0.000000    0.000000i     0.000000    0.000000i     0.000000    0.000000i     0.000000   -0.000000i     0.000000  -25.856548i
 Total mean-field SOC matrix (cm-1): < B(S,Sz) | Hsomf | A(S',Sz') >
                     |Sz'=-2.00>              |Sz'=-1.00>              |Sz'= 0.00>              |Sz'= 1.00>              |Sz'= 2.00>
 <Sz=-2.00|   -0.000000  -42.350031i     0.000000    0.000000i     0.000000    0.000000i     0.000000    0.000000i     0.000000    0.000000i
 <Sz=-1.00|   -0.000000    0.000000i     0.000000  -21.175016i     0.000000    0.000000i     0.000000    0.000000i     0.000000    0.000000i
 <Sz= 0.00|   -0.000000    0.000000i    -0.000000    0.000000i     0.000000    0.000000i     0.000000    0.000000i     0.000000    0.000000i
 <Sz= 1.00|    0.000000    0.000000i     0.000000    0.000000i    -0.000000    0.000000i     0.000000   21.175016i     0.000000    0.000000i
 <Sz= 2.00|    0.000000    0.000000i     0.000000    0.000000i     0.000000    0.000000i    -0.000000    0.000000i     0.000000   42.350031i
Mean-Field SOCC =    66.961278605 cm-1
   
**************************************************
State A: Root  3
State B: Root  2
  
Angular momentum components
< B | Lx | A > =     0.981859932i
< B | Ly | A > =    -0.000000000i
< B | Lz | A > =    -0.000000000i
  
Norm of one-particle transition density matrix
||gamma^AB||_total       =  0.999602
||gamma^AB||_symmetrized =  0.706826
||gamma^AB||_anti-symm   =  0.706826
  
Spin-orbit couplings
 Using HF (reference) density for the 2-elec mean-field SOC contribution
KET: S',Sz' (Root   3) =  2.000 2.000
BRA: S ,Sz  (Root   2) =  2.000 2.000
 1e Reduced matrix elements (cm-1)
<S|| Hso(L-) ||S'> =    -0.0000000000    65.3195249567
<S|| Hso(L0) ||S'> =     0.0000000000     0.0000000001
<S|| Hso(L+) ||S'> =    -0.0000000000   -65.3195249567
 1-elec SOC matrix (cm-1): < B(S,Sz) | Hso(1e) | A(S',Sz') >
                     |Sz'=-2.00>              |Sz'=-1.00>              |Sz'= 0.00>              |Sz'= 1.00>              |Sz'= 2.00>
 <Sz=-2.00|    0.000000   -0.000000i    -0.000000  -37.712245i    -0.000000   -0.000000i     0.000000    0.000000i     0.000000    0.000000i
 <Sz=-1.00|    0.000000  -37.712245i    -0.000000   -0.000000i    -0.000000  -46.187879i     0.000000    0.000000i     0.000000    0.000000i
 <Sz= 0.00|    0.000000   -0.000000i     0.000000  -46.187879i    -0.000000   -0.000000i    -0.000000  -46.187879i     0.000000    0.000000i
 <Sz= 1.00|    0.000000    0.000000i     0.000000    0.000000i     0.000000  -46.187879i     0.000000    0.000000i    -0.000000  -37.712245i
 <Sz= 2.00|    0.000000    0.000000i     0.000000    0.000000i     0.000000    0.000000i     0.000000  -37.712245i     0.000000    0.000000i
1-elec SOCC =   119.256590881 cm-1
 2e-SOMF Reduced matrix elements (cm-1)
<S|| Hso(L-) ||S'> =     0.0000000000   -25.7264884963
<S|| Hso(L0) ||S'> =     0.0000000000    -0.0000000000
<S|| Hso(L+) ||S'> =     0.0000000000    25.7264884963
 2-elec mean-field SOC matrix (cm-1): < B(S,Sz) | Hso(2e-mf) | A(S',Sz') >
                     |Sz'=-2.00>              |Sz'=-1.00>              |Sz'= 0.00>              |Sz'= 1.00>              |Sz'= 2.00>
 <Sz=-2.00|   -0.000000    0.000000i     0.000000   14.853195i     0.000000    0.000000i     0.000000    0.000000i     0.000000    0.000000i
 <Sz=-1.00|   -0.000000   14.853195i     0.000000    0.000000i     0.000000   18.191374i     0.000000    0.000000i     0.000000    0.000000i
 <Sz= 0.00|   -0.000000    0.000000i    -0.000000   18.191374i     0.000000    0.000000i     0.000000   18.191374i     0.000000    0.000000i
 <Sz= 1.00|    0.000000    0.000000i     0.000000    0.000000i    -0.000000   18.191374i     0.000000   -0.000000i     0.000000   14.853195i
 <Sz= 2.00|    0.000000    0.000000i     0.000000    0.000000i     0.000000    0.000000i    -0.000000   14.853195i     0.000000   -0.000000i
 Total mean-field SOC matrix (cm-1): < B(S,Sz) | Hsomf | A(S',Sz') >
                     |Sz'=-2.00>              |Sz'=-1.00>              |Sz'= 0.00>              |Sz'= 1.00>              |Sz'= 2.00>
 <Sz=-2.00|    0.000000   -0.000000i    -0.000000  -22.859050i    -0.000000   -0.000000i     0.000000    0.000000i     0.000000    0.000000i
 <Sz=-1.00|    0.000000  -22.859050i    -0.000000   -0.000000i    -0.000000  -27.996505i     0.000000    0.000000i     0.000000    0.000000i
 <Sz= 0.00|    0.000000   -0.000000i     0.000000  -27.996505i    -0.000000   -0.000000i    -0.000000  -27.996505i     0.000000    0.000000i
 <Sz= 1.00|    0.000000    0.000000i     0.000000    0.000000i     0.000000  -27.996505i     0.000000    0.000000i    -0.000000  -22.859050i
 <Sz= 2.00|    0.000000    0.000000i     0.000000    0.000000i     0.000000    0.000000i     0.000000  -22.859050i     0.000000    0.000000i
Mean-Field SOCC =    72.286663965 cm-1
   
**************************************************
State A: Root  3
State B: Root  4
  
Angular momentum components
< B | Lx | A > =     0.000000000i
< B | Ly | A > =     0.000000000i
< B | Lz | A > =    -0.006731810i
  
Norm of one-particle transition density matrix
||gamma^AB||_total       =  0.007584
||gamma^AB||_symmetrized =  0.005362
||gamma^AB||_anti-symm   =  0.005362
  
Spin-orbit couplings
 Using HF (reference) density for the 2-elec mean-field SOC contribution
KET: S',Sz' (Root   3) =  2.000 2.000
BRA: S ,Sz  (Root   4) =  2.000 2.000
 1e Reduced matrix elements (cm-1)
<S|| Hso(L-) ||S'> =     0.0000000000     0.0000000000
<S|| Hso(L0) ||S'> =     0.0000000000     0.8359688883
<S|| Hso(L+) ||S'> =     0.0000000000    -0.0000000000
 1-elec SOC matrix (cm-1): < B(S,Sz) | Hso(1e) | A(S',Sz') >
                     |Sz'=-2.00>              |Sz'=-1.00>              |Sz'= 0.00>              |Sz'= 1.00>              |Sz'= 2.00>
 <Sz=-2.00|   -0.000000   -0.682566i     0.000000   -0.000000i     0.000000    0.000000i     0.000000    0.000000i     0.000000    0.000000i
 <Sz=-1.00|   -0.000000   -0.000000i     0.000000   -0.341283i     0.000000   -0.000000i     0.000000    0.000000i     0.000000    0.000000i
 <Sz= 0.00|   -0.000000   -0.000000i    -0.000000   -0.000000i     0.000000    0.000000i     0.000000   -0.000000i     0.000000    0.000000i
 <Sz= 1.00|    0.000000    0.000000i     0.000000    0.000000i    -0.000000   -0.000000i     0.000000    0.341283i     0.000000   -0.000000i
 <Sz= 2.00|    0.000000    0.000000i     0.000000    0.000000i     0.000000    0.000000i    -0.000000   -0.000000i     0.000000    0.682566i
1-elec SOCC =     1.079231194 cm-1
 2e-SOMF Reduced matrix elements (cm-1)
<S|| Hso(L-) ||S'> =    -0.0000000000    -0.0000000000
<S|| Hso(L0) ||S'> =     0.0000000000    -0.3032302825
<S|| Hso(L+) ||S'> =    -0.0000000000     0.0000000000
 2-elec mean-field SOC matrix (cm-1): < B(S,Sz) | Hso(2e-mf) | A(S',Sz') >
                     |Sz'=-2.00>              |Sz'=-1.00>              |Sz'= 0.00>              |Sz'= 1.00>              |Sz'= 2.00>
 <Sz=-2.00|    0.000000    0.247586i    -0.000000    0.000000i    -0.000000   -0.000000i     0.000000    0.000000i     0.000000    0.000000i
 <Sz=-1.00|    0.000000    0.000000i    -0.000000    0.123793i    -0.000000    0.000000i     0.000000    0.000000i     0.000000    0.000000i
 <Sz= 0.00|    0.000000    0.000000i     0.000000    0.000000i    -0.000000   -0.000000i    -0.000000    0.000000i     0.000000    0.000000i
 <Sz= 1.00|    0.000000    0.000000i     0.000000    0.000000i     0.000000    0.000000i     0.000000   -0.123793i    -0.000000    0.000000i
 <Sz= 2.00|    0.000000    0.000000i     0.000000    0.000000i     0.000000    0.000000i     0.000000    0.000000i     0.000000   -0.247586i
 Total mean-field SOC matrix (cm-1): < B(S,Sz) | Hsomf | A(S',Sz') >
                     |Sz'=-2.00>              |Sz'=-1.00>              |Sz'= 0.00>              |Sz'= 1.00>              |Sz'= 2.00>
 <Sz=-2.00|   -0.000000   -0.434979i     0.000000   -0.000000i     0.000000    0.000000i     0.000000    0.000000i     0.000000    0.000000i
 <Sz=-1.00|   -0.000000   -0.000000i     0.000000   -0.217490i     0.000000   -0.000000i     0.000000    0.000000i     0.000000    0.000000i
 <Sz= 0.00|   -0.000000   -0.000000i    -0.000000   -0.000000i     0.000000    0.000000i     0.000000   -0.000000i     0.000000    0.000000i
 <Sz= 1.00|    0.000000    0.000000i     0.000000    0.000000i    -0.000000   -0.000000i     0.000000    0.217490i     0.000000   -0.000000i
 <Sz= 2.00|    0.000000    0.000000i     0.000000    0.000000i     0.000000    0.000000i    -0.000000   -0.000000i     0.000000    0.434979i
Mean-Field SOCC =     0.687762583 cm-1
   
**************************************************
State A: Root  3
State B: Root  5
  
Angular momentum components
< B | Lx | A > =     0.000000000i
< B | Ly | A > =    -0.028278018i
< B | Lz | A > =    -0.000000000i
  
Norm of one-particle transition density matrix
||gamma^AB||_total       =  1.000000
||gamma^AB||_symmetrized =  0.707107
||gamma^AB||_anti-symm   =  0.707106
  
Spin-orbit couplings
 Using HF (reference) density for the 2-elec mean-field SOC contribution
KET: S',Sz' (Root   3) =  2.000 2.000
BRA: S ,Sz  (Root   5) =  2.000 2.000
 1e Reduced matrix elements (cm-1)
<S|| Hso(L-) ||S'> =    -5.0560918272     0.0000000000
<S|| Hso(L0) ||S'> =     0.0000000000     0.0000000000
<S|| Hso(L+) ||S'> =    -5.0560918272    -0.0000000000
 1-elec SOC matrix (cm-1): < B(S,Sz) | Hso(1e) | A(S',Sz') >
                     |Sz'=-2.00>              |Sz'=-1.00>              |Sz'= 0.00>              |Sz'= 1.00>              |Sz'= 2.00>
 <Sz=-2.00|    0.000000   -0.000000i    -2.919136   -0.000000i    -0.000000   -0.000000i     0.000000    0.000000i     0.000000    0.000000i
 <Sz=-1.00|    2.919136   -0.000000i    -0.000000   -0.000000i    -3.575197   -0.000000i     0.000000    0.000000i     0.000000    0.000000i
 <Sz= 0.00|    0.000000   -0.000000i     3.575197   -0.000000i    -0.000000    0.000000i    -3.575197   -0.000000i     0.000000    0.000000i
 <Sz= 1.00|    0.000000    0.000000i     0.000000    0.000000i     3.575197   -0.000000i     0.000000    0.000000i    -2.919136   -0.000000i
 <Sz= 2.00|    0.000000    0.000000i     0.000000    0.000000i     0.000000    0.000000i     2.919136   -0.000000i     0.000000    0.000000i
1-elec SOCC =     9.231118489 cm-1
 2e-SOMF Reduced matrix elements (cm-1)
<S|| Hso(L-) ||S'> =     2.1422860585    -0.0000000000
<S|| Hso(L0) ||S'> =     0.0000000000    -0.0000000000
<S|| Hso(L+) ||S'> =     2.1422860585     0.0000000000
 2-elec mean-field SOC matrix (cm-1): < B(S,Sz) | Hso(2e-mf) | A(S',Sz') >
                     |Sz'=-2.00>              |Sz'=-1.00>              |Sz'= 0.00>              |Sz'= 1.00>              |Sz'= 2.00>
 <Sz=-2.00|   -0.000000    0.000000i     1.236849    0.000000i     0.000000    0.000000i     0.000000    0.000000i     0.000000    0.000000i
 <Sz=-1.00|   -1.236849    0.000000i     0.000000    0.000000i     1.514825    0.000000i     0.000000    0.000000i     0.000000    0.000000i
 <Sz= 0.00|   -0.000000    0.000000i    -1.514825    0.000000i     0.000000   -0.000000i     1.514825    0.000000i     0.000000    0.000000i
 <Sz= 1.00|    0.000000    0.000000i     0.000000    0.000000i    -1.514825    0.000000i     0.000000   -0.000000i     1.236849    0.000000i
 <Sz= 2.00|    0.000000    0.000000i     0.000000    0.000000i     0.000000    0.000000i    -1.236849    0.000000i     0.000000   -0.000000i
 Total mean-field SOC matrix (cm-1): < B(S,Sz) | Hsomf | A(S',Sz') >
                     |Sz'=-2.00>              |Sz'=-1.00>              |Sz'= 0.00>              |Sz'= 1.00>              |Sz'= 2.00>
 <Sz=-2.00|    0.000000   -0.000000i    -1.682287   -0.000000i    -0.000000   -0.000000i     0.000000    0.000000i     0.000000    0.000000i
 <Sz=-1.00|    1.682287   -0.000000i    -0.000000   -0.000000i    -2.060372   -0.000000i     0.000000    0.000000i     0.000000    0.000000i
 <Sz= 0.00|    0.000000   -0.000000i     2.060372   -0.000000i    -0.000000    0.000000i    -2.060372   -0.000000i     0.000000    0.000000i
 <Sz= 1.00|    0.000000    0.000000i     0.000000    0.000000i     2.060372   -0.000000i     0.000000    0.000000i    -1.682287   -0.000000i
 <Sz= 2.00|    0.000000    0.000000i     0.000000    0.000000i     0.000000    0.000000i     1.682287   -0.000000i     0.000000    0.000000i
Mean-Field SOCC =     5.319857159 cm-1
   
**************************************************
State A: Root  4
State B: Root  1
  
Angular momentum components
< B | Lx | A > =    -0.000000000i
< B | Ly | A > =    -0.000000000i
< B | Lz | A > =    -0.000000000i
  
Norm of one-particle transition density matrix
||gamma^AB||_total       =  0.998491
||gamma^AB||_symmetrized =  0.706228
||gamma^AB||_anti-symm   =  0.705852
  
Spin-orbit couplings
 Using HF (reference) density for the 2-elec mean-field SOC contribution
KET: S',Sz' (Root   4) =  2.000 2.000
BRA: S ,Sz  (Root   1) =  2.000 2.000
 1e Reduced matrix elements (cm-1)
<S|| Hso(L-) ||S'> =    -0.0000000000    -0.0000000000
<S|| Hso(L0) ||S'> =     0.0000000000     0.0000000000
<S|| Hso(L+) ||S'> =    -0.0000000000     0.0000000000
 1-elec SOC matrix (cm-1): < B(S,Sz) | Hso(1e) | A(S',Sz') >
                     |Sz'=-2.00>              |Sz'=-1.00>              |Sz'= 0.00>              |Sz'= 1.00>              |Sz'= 2.00>
 <Sz=-2.00|    0.000000   -0.000000i    -0.000000    0.000000i    -0.000000    0.000000i     0.000000    0.000000i     0.000000    0.000000i
 <Sz=-1.00|    0.000000    0.000000i    -0.000000   -0.000000i    -0.000000    0.000000i     0.000000    0.000000i     0.000000    0.000000i
 <Sz= 0.00|    0.000000    0.000000i     0.000000    0.000000i    -0.000000    0.000000i    -0.000000    0.000000i     0.000000    0.000000i
 <Sz= 1.00|    0.000000    0.000000i     0.000000    0.000000i     0.000000    0.000000i     0.000000    0.000000i    -0.000000    0.000000i
 <Sz= 2.00|    0.000000    0.000000i     0.000000    0.000000i     0.000000    0.000000i     0.000000    0.000000i     0.000000    0.000000i
1-elec SOCC =     0.000000000 cm-1
 2e-SOMF Reduced matrix elements (cm-1)
<S|| Hso(L-) ||S'> =     0.0000000000     0.0000000000
<S|| Hso(L0) ||S'> =     0.0000000000    -0.0000000000
<S|| Hso(L+) ||S'> =     0.0000000000    -0.0000000000
 2-elec mean-field SOC matrix (cm-1): < B(S,Sz) | Hso(2e-mf) | A(S',Sz') >
                     |Sz'=-2.00>              |Sz'=-1.00>              |Sz'= 0.00>              |Sz'= 1.00>              |Sz'= 2.00>
 <Sz=-2.00|   -0.000000    0.000000i     0.000000   -0.000000i     0.000000   -0.000000i     0.000000    0.000000i     0.000000    0.000000i
 <Sz=-1.00|   -0.000000   -0.000000i     0.000000    0.000000i     0.000000   -0.000000i     0.000000    0.000000i     0.000000    0.000000i
 <Sz= 0.00|   -0.000000   -0.000000i    -0.000000   -0.000000i     0.000000   -0.000000i     0.000000   -0.000000i     0.000000    0.000000i
 <Sz= 1.00|    0.000000    0.000000i     0.000000    0.000000i    -0.000000   -0.000000i     0.000000   -0.000000i     0.000000   -0.000000i
 <Sz= 2.00|    0.000000    0.000000i     0.000000    0.000000i     0.000000    0.000000i    -0.000000   -0.000000i     0.000000   -0.000000i
 Total mean-field SOC matrix (cm-1): < B(S,Sz) | Hsomf | A(S',Sz') >
                     |Sz'=-2.00>              |Sz'=-1.00>              |Sz'= 0.00>              |Sz'= 1.00>              |Sz'= 2.00>
 <Sz=-2.00|    0.000000   -0.000000i    -0.000000    0.000000i    -0.000000    0.000000i     0.000000    0.000000i     0.000000    0.000000i
 <Sz=-1.00|    0.000000    0.000000i    -0.000000   -0.000000i    -0.000000    0.000000i     0.000000    0.000000i     0.000000    0.000000i
 <Sz= 0.00|    0.000000    0.000000i     0.000000    0.000000i    -0.000000    0.000000i    -0.000000    0.000000i     0.000000    0.000000i
 <Sz= 1.00|    0.000000    0.000000i     0.000000    0.000000i     0.000000    0.000000i     0.000000    0.000000i    -0.000000    0.000000i
 <Sz= 2.00|    0.000000    0.000000i     0.000000    0.000000i     0.000000    0.000000i     0.000000    0.000000i     0.000000    0.000000i
Mean-Field SOCC =     0.000000000 cm-1
   
**************************************************
State A: Root  4
State B: Root  2
  
Angular momentum components
< B | Lx | A > =     0.000000000i
< B | Ly | A > =     0.010730188i
< B | Lz | A > =    -0.000000000i
  
Norm of one-particle transition density matrix
||gamma^AB||_total       =  0.999801
||gamma^AB||_symmetrized =  0.706760
||gamma^AB||_anti-symm   =  0.707173
  
Spin-orbit couplings
 Using HF (reference) density for the 2-elec mean-field SOC contribution
KET: S',Sz' (Root   4) =  2.000 2.000
BRA: S ,Sz  (Root   2) =  2.000 2.000
 1e Reduced matrix elements (cm-1)
<S|| Hso(L-) ||S'> =     2.9448099797     0.0000000000
<S|| Hso(L0) ||S'> =     0.0000000000     0.0000000000
<S|| Hso(L+) ||S'> =     2.9448099797    -0.0000000000
 1-elec SOC matrix (cm-1): < B(S,Sz) | Hso(1e) | A(S',Sz') >
                     |Sz'=-2.00>              |Sz'=-1.00>              |Sz'= 0.00>              |Sz'= 1.00>              |Sz'= 2.00>
 <Sz=-2.00|   -0.000000   -0.000000i     1.700187   -0.000000i     0.000000   -0.000000i     0.000000    0.000000i     0.000000    0.000000i
 <Sz=-1.00|   -1.700187   -0.000000i     0.000000   -0.000000i     2.082295   -0.000000i     0.000000    0.000000i     0.000000    0.000000i
 <Sz= 0.00|   -0.000000   -0.000000i    -2.082295   -0.000000i     0.000000    0.000000i     2.082295   -0.000000i     0.000000    0.000000i
 <Sz= 1.00|    0.000000    0.000000i     0.000000    0.000000i    -2.082295   -0.000000i     0.000000    0.000000i     1.700187   -0.000000i
 <Sz= 2.00|    0.000000    0.000000i     0.000000    0.000000i     0.000000    0.000000i    -1.700187   -0.000000i     0.000000    0.000000i
1-elec SOCC =     5.376462845 cm-1
 2e-SOMF Reduced matrix elements (cm-1)
<S|| Hso(L-) ||S'> =    -1.3169928203    -0.0000000000
<S|| Hso(L0) ||S'> =     0.0000000000    -0.0000000000
<S|| Hso(L+) ||S'> =    -1.3169928203     0.0000000000
 2-elec mean-field SOC matrix (cm-1): < B(S,Sz) | Hso(2e-mf) | A(S',Sz') >
                     |Sz'=-2.00>              |Sz'=-1.00>              |Sz'= 0.00>              |Sz'= 1.00>              |Sz'= 2.00>
 <Sz=-2.00|    0.000000    0.000000i    -0.760366    0.000000i    -0.000000    0.000000i     0.000000    0.000000i     0.000000    0.000000i
 <Sz=-1.00|    0.760366    0.000000i    -0.000000    0.000000i    -0.931255    0.000000i     0.000000    0.000000i     0.000000    0.000000i
 <Sz= 0.00|    0.000000    0.000000i     0.931255    0.000000i    -0.000000   -0.000000i    -0.931255    0.000000i     0.000000    0.000000i
 <Sz= 1.00|    0.000000    0.000000i     0.000000    0.000000i     0.931255    0.000000i     0.000000   -0.000000i    -0.760366    0.000000i
 <Sz= 2.00|    0.000000    0.000000i     0.000000    0.000000i     0.000000    0.000000i     0.760366    0.000000i     0.000000   -0.000000i
 Total mean-field SOC matrix (cm-1): < B(S,Sz) | Hsomf | A(S',Sz') >
                     |Sz'=-2.00>              |Sz'=-1.00>              |Sz'= 0.00>              |Sz'= 1.00>              |Sz'= 2.00>
 <Sz=-2.00|   -0.000000   -0.000000i     0.939821   -0.000000i     0.000000   -0.000000i     0.000000    0.000000i     0.000000    0.000000i
 <Sz=-1.00|   -0.939821   -0.000000i     0.000000   -0.000000i     1.151041   -0.000000i     0.000000    0.000000i     0.000000    0.000000i
 <Sz= 0.00|   -0.000000   -0.000000i    -1.151041   -0.000000i     0.000000    0.000000i     1.151041   -0.000000i     0.000000    0.000000i
 <Sz= 1.00|    0.000000    0.000000i     0.000000    0.000000i    -1.151041   -0.000000i     0.000000    0.000000i     0.939821   -0.000000i
 <Sz= 2.00|    0.000000    0.000000i     0.000000    0.000000i     0.000000    0.000000i    -0.939821   -0.000000i     0.000000    0.000000i
Mean-Field SOCC =     2.971973926 cm-1
   
**************************************************
State A: Root  4
State B: Root  3
  
Angular momentum components
< B | Lx | A > =    -0.000000000i
< B | Ly | A > =    -0.000000000i
< B | Lz | A > =     0.006731810i
  
Norm of one-particle transition density matrix
||gamma^AB||_total       =  0.007584
||gamma^AB||_symmetrized =  0.005362
||gamma^AB||_anti-symm   =  0.005362
  
Spin-orbit couplings
 Using HF (reference) density for the 2-elec mean-field SOC contribution
KET: S',Sz' (Root   4) =  2.000 2.000
BRA: S ,Sz  (Root   3) =  2.000 2.000
 1e Reduced matrix elements (cm-1)
<S|| Hso(L-) ||S'> =    -0.0000000000    -0.0000000000
<S|| Hso(L0) ||S'> =     0.0000000000    -0.8359688883
<S|| Hso(L+) ||S'> =    -0.0000000000     0.0000000000
 1-elec SOC matrix (cm-1): < B(S,Sz) | Hso(1e) | A(S',Sz') >
                     |Sz'=-2.00>              |Sz'=-1.00>              |Sz'= 0.00>              |Sz'= 1.00>              |Sz'= 2.00>
 <Sz=-2.00|    0.000000    0.682566i    -0.000000    0.000000i    -0.000000   -0.000000i     0.000000    0.000000i     0.000000    0.000000i
 <Sz=-1.00|    0.000000    0.000000i    -0.000000    0.341283i    -0.000000    0.000000i     0.000000    0.000000i     0.000000    0.000000i
 <Sz= 0.00|    0.000000    0.000000i     0.000000    0.000000i    -0.000000   -0.000000i    -0.000000    0.000000i     0.000000    0.000000i
 <Sz= 1.00|    0.000000    0.000000i     0.000000    0.000000i     0.000000    0.000000i     0.000000   -0.341283i    -0.000000    0.000000i
 <Sz= 2.00|    0.000000    0.000000i     0.000000    0.000000i     0.000000    0.000000i     0.000000    0.000000i     0.000000   -0.682566i
1-elec SOCC =     1.079231194 cm-1
 2e-SOMF Reduced matrix elements (cm-1)
<S|| Hso(L-) ||S'> =     0.0000000000     0.0000000000
<S|| Hso(L0) ||S'> =     0.0000000000     0.3032302825
<S|| Hso(L+) ||S'> =     0.0000000000    -0.0000000000
 2-elec mean-field SOC matrix (cm-1): < B(S,Sz) | Hso(2e-mf) | A(S',Sz') >
                     |Sz'=-2.00>              |Sz'=-1.00>              |Sz'= 0.00>              |Sz'= 1.00>              |Sz'= 2.00>
 <Sz=-2.00|   -0.000000   -0.247586i     0.000000   -0.000000i     0.000000    0.000000i     0.000000    0.000000i     0.000000    0.000000i
 <Sz=-1.00|   -0.000000   -0.000000i     0.000000   -0.123793i     0.000000   -0.000000i     0.000000    0.000000i     0.000000    0.000000i
 <Sz= 0.00|   -0.000000   -0.000000i    -0.000000   -0.000000i     0.000000    0.000000i     0.000000   -0.000000i     0.000000    0.000000i
 <Sz= 1.00|    0.000000    0.000000i     0.000000    0.000000i    -0.000000   -0.000000i     0.000000    0.123793i     0.000000   -0.000000i
 <Sz= 2.00|    0.000000    0.000000i     0.000000    0.000000i     0.000000    0.000000i    -0.000000   -0.000000i     0.000000    0.247586i
 Total mean-field SOC matrix (cm-1): < B(S,Sz) | Hsomf | A(S',Sz') >
                     |Sz'=-2.00>              |Sz'=-1.00>              |Sz'= 0.00>              |Sz'= 1.00>              |Sz'= 2.00>
 <Sz=-2.00|    0.000000    0.434979i    -0.000000    0.000000i    -0.000000   -0.000000i     0.000000    0.000000i     0.000000    0.000000i
 <Sz=-1.00|    0.000000    0.000000i    -0.000000    0.217490i    -0.000000    0.000000i     0.000000    0.000000i     0.000000    0.000000i
 <Sz= 0.00|    0.000000    0.000000i     0.000000    0.000000i    -0.000000   -0.000000i    -0.000000    0.000000i     0.000000    0.000000i
 <Sz= 1.00|    0.000000    0.000000i     0.000000    0.000000i     0.000000    0.000000i     0.000000   -0.217490i    -0.000000    0.000000i
 <Sz= 2.00|    0.000000    0.000000i     0.000000    0.000000i     0.000000    0.000000i     0.000000    0.000000i     0.000000   -0.434979i
Mean-Field SOCC =     0.687762583 cm-1
   
**************************************************
State A: Root  4
State B: Root  5
  
Angular momentum components
< B | Lx | A > =    -0.981144860i
< B | Ly | A > =    -0.000000000i
< B | Lz | A > =     0.000000000i
  
Norm of one-particle transition density matrix
||gamma^AB||_total       =  0.999780
||gamma^AB||_symmetrized =  0.706951
||gamma^AB||_anti-symm   =  0.706951
  
Spin-orbit couplings
 Using HF (reference) density for the 2-elec mean-field SOC contribution
KET: S',Sz' (Root   4) =  2.000 2.000
BRA: S ,Sz  (Root   5) =  2.000 2.000
 1e Reduced matrix elements (cm-1)
<S|| Hso(L-) ||S'> =    -0.0000000000   -65.1793750516
<S|| Hso(L0) ||S'> =     0.0000000000    -0.0000000000
<S|| Hso(L+) ||S'> =    -0.0000000000    65.1793750516
 1-elec SOC matrix (cm-1): < B(S,Sz) | Hso(1e) | A(S',Sz') >
                     |Sz'=-2.00>              |Sz'=-1.00>              |Sz'= 0.00>              |Sz'= 1.00>              |Sz'= 2.00>
 <Sz=-2.00|    0.000000    0.000000i    -0.000000   37.631330i    -0.000000    0.000000i     0.000000    0.000000i     0.000000    0.000000i
 <Sz=-1.00|    0.000000   37.631330i    -0.000000    0.000000i    -0.000000   46.088778i     0.000000    0.000000i     0.000000    0.000000i
 <Sz= 0.00|    0.000000    0.000000i     0.000000   46.088778i    -0.000000    0.000000i    -0.000000   46.088778i     0.000000    0.000000i
 <Sz= 1.00|    0.000000    0.000000i     0.000000    0.000000i     0.000000   46.088778i     0.000000   -0.000000i    -0.000000   37.631330i
 <Sz= 2.00|    0.000000    0.000000i     0.000000    0.000000i     0.000000    0.000000i     0.000000   37.631330i     0.000000   -0.000000i
1-elec SOCC =   119.000713333 cm-1
 2e-SOMF Reduced matrix elements (cm-1)
<S|| Hso(L-) ||S'> =     0.0000000000    25.6773522692
<S|| Hso(L0) ||S'> =     0.0000000000     0.0000000000
<S|| Hso(L+) ||S'> =     0.0000000000   -25.6773522692
 2-elec mean-field SOC matrix (cm-1): < B(S,Sz) | Hso(2e-mf) | A(S',Sz') >
                     |Sz'=-2.00>              |Sz'=-1.00>              |Sz'= 0.00>              |Sz'= 1.00>              |Sz'= 2.00>
 <Sz=-2.00|   -0.000000   -0.000000i     0.000000  -14.824826i     0.000000   -0.000000i     0.000000    0.000000i     0.000000    0.000000i
 <Sz=-1.00|   -0.000000  -14.824826i     0.000000   -0.000000i     0.000000  -18.156630i     0.000000    0.000000i     0.000000    0.000000i
 <Sz= 0.00|   -0.000000   -0.000000i    -0.000000  -18.156630i     0.000000   -0.000000i     0.000000  -18.156630i     0.000000    0.000000i
 <Sz= 1.00|    0.000000    0.000000i     0.000000    0.000000i    -0.000000  -18.156630i     0.000000    0.000000i     0.000000  -14.824826i
 <Sz= 2.00|    0.000000    0.000000i     0.000000    0.000000i     0.000000    0.000000i    -0.000000  -14.824826i     0.000000    0.000000i
 Total mean-field SOC matrix (cm-1): < B(S,Sz) | Hsomf | A(S',Sz') >
                     |Sz'=-2.00>              |Sz'=-1.00>              |Sz'= 0.00>              |Sz'= 1.00>              |Sz'= 2.00>
 <Sz=-2.00|    0.000000    0.000000i    -0.000000   22.806503i    -0.000000    0.000000i     0.000000    0.000000i     0.000000    0.000000i
 <Sz=-1.00|    0.000000   22.806503i    -0.000000    0.000000i    -0.000000   27.932148i     0.000000    0.000000i     0.000000    0.000000i
 <Sz= 0.00|    0.000000    0.000000i     0.000000   27.932148i    -0.000000    0.000000i    -0.000000   27.932148i     0.000000    0.000000i
 <Sz= 1.00|    0.000000    0.000000i     0.000000    0.000000i     0.000000   27.932148i     0.000000   -0.000000i    -0.000000   22.806503i
 <Sz= 2.00|    0.000000    0.000000i     0.000000    0.000000i     0.000000    0.000000i     0.000000   22.806503i     0.000000   -0.000000i
Mean-Field SOCC =    72.120496483 cm-1
   
**************************************************
State A: Root  5
State B: Root  1
  
Angular momentum components
< B | Lx | A > =     0.031600739i
< B | Ly | A > =    -0.000000000i
< B | Lz | A > =     0.000000000i
  
Norm of one-particle transition density matrix
||gamma^AB||_total       =  0.998114
||gamma^AB||_symmetrized =  0.705773
||gamma^AB||_anti-symm   =  0.705773
  
Spin-orbit couplings
 Using HF (reference) density for the 2-elec mean-field SOC contribution
KET: S',Sz' (Root   5) =  2.000 2.000
BRA: S ,Sz  (Root   1) =  2.000 2.000
 1e Reduced matrix elements (cm-1)
<S|| Hso(L-) ||S'> =    -0.0000000000     5.5230263581
<S|| Hso(L0) ||S'> =     0.0000000000     0.0000000000
<S|| Hso(L+) ||S'> =    -0.0000000000    -5.5230263581
 1-elec SOC matrix (cm-1): < B(S,Sz) | Hso(1e) | A(S',Sz') >
                     |Sz'=-2.00>              |Sz'=-1.00>              |Sz'= 0.00>              |Sz'= 1.00>              |Sz'= 2.00>
 <Sz=-2.00|    0.000000   -0.000000i    -0.000000   -3.188721i    -0.000000   -0.000000i     0.000000    0.000000i     0.000000    0.000000i
 <Sz=-1.00|    0.000000   -3.188721i    -0.000000   -0.000000i    -0.000000   -3.905369i     0.000000    0.000000i     0.000000    0.000000i
 <Sz= 0.00|    0.000000   -0.000000i     0.000000   -3.905369i    -0.000000   -0.000000i    -0.000000   -3.905369i     0.000000    0.000000i
 <Sz= 1.00|    0.000000    0.000000i     0.000000    0.000000i     0.000000   -3.905369i     0.000000    0.000000i    -0.000000   -3.188721i
 <Sz= 2.00|    0.000000    0.000000i     0.000000    0.000000i     0.000000    0.000000i     0.000000   -3.188721i     0.000000    0.000000i
1-elec SOCC =    10.083620407 cm-1
 2e-SOMF Reduced matrix elements (cm-1)
<S|| Hso(L-) ||S'> =     0.0000000000    -2.0644322024
<S|| Hso(L0) ||S'> =     0.0000000000    -0.0000000000
<S|| Hso(L+) ||S'> =     0.0000000000     2.0644322024
 2-elec mean-field SOC matrix (cm-1): < B(S,Sz) | Hso(2e-mf) | A(S',Sz') >
                     |Sz'=-2.00>              |Sz'=-1.00>              |Sz'= 0.00>              |Sz'= 1.00>              |Sz'= 2.00>
 <Sz=-2.00|   -0.000000    0.000000i     0.000000    1.191900i     0.000000    0.000000i     0.000000    0.000000i     0.000000    0.000000i
 <Sz=-1.00|   -0.000000    1.191900i     0.000000    0.000000i     0.000000    1.459774i     0.000000    0.000000i     0.000000    0.000000i
 <Sz= 0.00|   -0.000000    0.000000i    -0.000000    1.459774i     0.000000    0.000000i     0.000000    1.459774i     0.000000    0.000000i
 <Sz= 1.00|    0.000000    0.000000i     0.000000    0.000000i    -0.000000    1.459774i     0.000000   -0.000000i     0.000000    1.191900i
 <Sz= 2.00|    0.000000    0.000000i     0.000000    0.000000i     0.000000    0.000000i    -0.000000    1.191900i     0.000000   -0.000000i
 Total mean-field SOC matrix (cm-1): < B(S,Sz) | Hsomf | A(S',Sz') >
                     |Sz'=-2.00>              |Sz'=-1.00>              |Sz'= 0.00>              |Sz'= 1.00>              |Sz'= 2.00>
 <Sz=-2.00|    0.000000   -0.000000i    -0.000000   -1.996820i    -0.000000   -0.000000i     0.000000    0.000000i     0.000000    0.000000i
 <Sz=-1.00|    0.000000   -1.996820i    -0.000000   -0.000000i    -0.000000   -2.445595i     0.000000    0.000000i     0.000000    0.000000i
 <Sz= 0.00|    0.000000   -0.000000i     0.000000   -2.445595i    -0.000000   -0.000000i    -0.000000   -2.445595i     0.000000    0.000000i
 <Sz= 1.00|    0.000000    0.000000i     0.000000    0.000000i     0.000000   -2.445595i     0.000000    0.000000i    -0.000000   -1.996820i
 <Sz= 2.00|    0.000000    0.000000i     0.000000    0.000000i     0.000000    0.000000i     0.000000   -1.996820i     0.000000    0.000000i
Mean-Field SOCC =     6.314500121 cm-1
   
**************************************************
State A: Root  5
State B: Root  2
  
Angular momentum components
< B | Lx | A > =     0.000000000i
< B | Ly | A > =    -0.000000000i
< B | Lz | A > =     0.008773505i
  
Norm of one-particle transition density matrix
||gamma^AB||_total       =  0.025034
||gamma^AB||_symmetrized =  0.017702
||gamma^AB||_anti-symm   =  0.017702
  
Spin-orbit couplings
 Using HF (reference) density for the 2-elec mean-field SOC contribution
KET: S',Sz' (Root   5) =  2.000 2.000
BRA: S ,Sz  (Root   2) =  2.000 2.000
 1e Reduced matrix elements (cm-1)
<S|| Hso(L-) ||S'> =    -0.0000000000     0.0000000000
<S|| Hso(L0) ||S'> =     0.0000000000    -1.9212827887
<S|| Hso(L+) ||S'> =    -0.0000000000    -0.0000000000
 1-elec SOC matrix (cm-1): < B(S,Sz) | Hso(1e) | A(S',Sz') >
                     |Sz'=-2.00>              |Sz'=-1.00>              |Sz'= 0.00>              |Sz'= 1.00>              |Sz'= 2.00>
 <Sz=-2.00|    0.000000    1.568721i    -0.000000   -0.000000i    -0.000000   -0.000000i     0.000000    0.000000i     0.000000    0.000000i
 <Sz=-1.00|    0.000000   -0.000000i    -0.000000    0.784360i    -0.000000   -0.000000i     0.000000    0.000000i     0.000000    0.000000i
 <Sz= 0.00|    0.000000   -0.000000i     0.000000   -0.000000i    -0.000000   -0.000000i    -0.000000   -0.000000i     0.000000    0.000000i
 <Sz= 1.00|    0.000000    0.000000i     0.000000    0.000000i     0.000000   -0.000000i     0.000000   -0.784360i    -0.000000   -0.000000i
 <Sz= 2.00|    0.000000    0.000000i     0.000000    0.000000i     0.000000    0.000000i     0.000000   -0.000000i     0.000000   -1.568721i
1-elec SOCC =     2.480365415 cm-1
 2e-SOMF Reduced matrix elements (cm-1)
<S|| Hso(L-) ||S'> =     0.0000000000    -0.0000000000
<S|| Hso(L0) ||S'> =     0.0000000000     0.6643440330
<S|| Hso(L+) ||S'> =     0.0000000000     0.0000000000
 2-elec mean-field SOC matrix (cm-1): < B(S,Sz) | Hso(2e-mf) | A(S',Sz') >
                     |Sz'=-2.00>              |Sz'=-1.00>              |Sz'= 0.00>              |Sz'= 1.00>              |Sz'= 2.00>
 <Sz=-2.00|   -0.000000   -0.542435i     0.000000    0.000000i     0.000000    0.000000i     0.000000    0.000000i     0.000000    0.000000i
 <Sz=-1.00|   -0.000000    0.000000i     0.000000   -0.271217i     0.000000    0.000000i     0.000000    0.000000i     0.000000    0.000000i
 <Sz= 0.00|   -0.000000    0.000000i    -0.000000    0.000000i     0.000000    0.000000i     0.000000    0.000000i     0.000000    0.000000i
 <Sz= 1.00|    0.000000    0.000000i     0.000000    0.000000i    -0.000000    0.000000i     0.000000    0.271217i     0.000000    0.000000i
 <Sz= 2.00|    0.000000    0.000000i     0.000000    0.000000i     0.000000    0.000000i    -0.000000    0.000000i     0.000000    0.542435i
 Total mean-field SOC matrix (cm-1): < B(S,Sz) | Hsomf | A(S',Sz') >
                     |Sz'=-2.00>              |Sz'=-1.00>              |Sz'= 0.00>              |Sz'= 1.00>              |Sz'= 2.00>
 <Sz=-2.00|    0.000000    1.026286i    -0.000000   -0.000000i    -0.000000   -0.000000i     0.000000    0.000000i     0.000000    0.000000i
 <Sz=-1.00|    0.000000   -0.000000i    -0.000000    0.513143i    -0.000000   -0.000000i     0.000000    0.000000i     0.000000    0.000000i
 <Sz= 0.00|    0.000000   -0.000000i     0.000000   -0.000000i    -0.000000   -0.000000i    -0.000000   -0.000000i     0.000000    0.000000i
 <Sz= 1.00|    0.000000    0.000000i     0.000000    0.000000i     0.000000   -0.000000i     0.000000   -0.513143i    -0.000000   -0.000000i
 <Sz= 2.00|    0.000000    0.000000i     0.000000    0.000000i     0.000000    0.000000i     0.000000   -0.000000i     0.000000   -1.026286i
Mean-Field SOCC =     1.622700956 cm-1
   
**************************************************
State A: Root  5
State B: Root  3
  
Angular momentum components
< B | Lx | A > =    -0.000000000i
< B | Ly | A > =     0.028278018i
< B | Lz | A > =     0.000000000i
  
Norm of one-particle transition density matrix
||gamma^AB||_total       =  1.000000
||gamma^AB||_symmetrized =  0.707107
||gamma^AB||_anti-symm   =  0.707106
  
Spin-orbit couplings
 Using HF (reference) density for the 2-elec mean-field SOC contribution
KET: S',Sz' (Root   5) =  2.000 2.000
BRA: S ,Sz  (Root   3) =  2.000 2.000
 1e Reduced matrix elements (cm-1)
<S|| Hso(L-) ||S'> =     5.0560918272    -0.0000000000
<S|| Hso(L0) ||S'> =     0.0000000000    -0.0000000000
<S|| Hso(L+) ||S'> =     5.0560918272     0.0000000000
 1-elec SOC matrix (cm-1): < B(S,Sz) | Hso(1e) | A(S',Sz') >
                     |Sz'=-2.00>              |Sz'=-1.00>              |Sz'= 0.00>              |Sz'= 1.00>              |Sz'= 2.00>
 <Sz=-2.00|   -0.000000    0.000000i     2.919136    0.000000i     0.000000    0.000000i     0.000000    0.000000i     0.000000    0.000000i
 <Sz=-1.00|   -2.919136    0.000000i     0.000000    0.000000i     3.575197    0.000000i     0.000000    0.000000i     0.000000    0.000000i
 <Sz= 0.00|   -0.000000    0.000000i    -3.575197    0.000000i     0.000000   -0.000000i     3.575197    0.000000i     0.000000    0.000000i
 <Sz= 1.00|    0.000000    0.000000i     0.000000    0.000000i    -3.575197    0.000000i     0.000000   -0.000000i     2.919136    0.000000i
 <Sz= 2.00|    0.000000    0.000000i     0.000000    0.000000i     0.000000    0.000000i    -2.919136    0.000000i     0.000000   -0.000000i
1-elec SOCC =     9.231118489 cm-1
 2e-SOMF Reduced matrix elements (cm-1)
<S|| Hso(L-) ||S'> =    -2.1422860585     0.0000000000
<S|| Hso(L0) ||S'> =     0.0000000000     0.0000000000
<S|| Hso(L+) ||S'> =    -2.1422860585    -0.0000000000
 2-elec mean-field SOC matrix (cm-1): < B(S,Sz) | Hso(2e-mf) | A(S',Sz') >
                     |Sz'=-2.00>              |Sz'=-1.00>              |Sz'= 0.00>              |Sz'= 1.00>              |Sz'= 2.00>
 <Sz=-2.00|    0.000000   -0.000000i    -1.236849   -0.000000i    -0.000000   -0.000000i     0.000000    0.000000i     0.000000    0.000000i
 <Sz=-1.00|    1.236849   -0.000000i    -0.000000   -0.000000i    -1.514825   -0.000000i     0.000000    0.000000i     0.000000    0.000000i
 <Sz= 0.00|    0.000000   -0.000000i     1.514825   -0.000000i    -0.000000    0.000000i    -1.514825   -0.000000i     0.000000    0.000000i
 <Sz= 1.00|    0.000000    0.000000i     0.000000    0.000000i     1.514825   -0.000000i     0.000000    0.000000i    -1.236849   -0.000000i
 <Sz= 2.00|    0.000000    0.000000i     0.000000    0.000000i     0.000000    0.000000i     1.236849   -0.000000i     0.000000    0.000000i
 Total mean-field SOC matrix (cm-1): < B(S,Sz) | Hsomf | A(S',Sz') >
                     |Sz'=-2.00>              |Sz'=-1.00>              |Sz'= 0.00>              |Sz'= 1.00>              |Sz'= 2.00>
 <Sz=-2.00|   -0.000000    0.000000i     1.682287    0.000000i     0.000000    0.000000i     0.000000    0.000000i     0.000000    0.000000i
 <Sz=-1.00|   -1.682287    0.000000i     0.000000    0.000000i     2.060372    0.000000i     0.000000    0.000000i     0.000000    0.000000i
 <Sz= 0.00|   -0.000000    0.000000i    -2.060372    0.000000i     0.000000   -0.000000i     2.060372    0.000000i     0.000000    0.000000i
 <Sz= 1.00|    0.000000    0.000000i     0.000000    0.000000i    -2.060372    0.000000i     0.000000   -0.000000i     1.682287    0.000000i
 <Sz= 2.00|    0.000000    0.000000i     0.000000    0.000000i     0.000000    0.000000i    -1.682287    0.000000i     0.000000   -0.000000i
Mean-Field SOCC =     5.319857159 cm-1
   
**************************************************
State A: Root  5
State B: Root  4
  
Angular momentum components
< B | Lx | A > =     0.981144860i
< B | Ly | A > =     0.000000000i
< B | Lz | A > =    -0.000000000i
  
Norm of one-particle transition density matrix
||gamma^AB||_total       =  0.999780
||gamma^AB||_symmetrized =  0.706951
||gamma^AB||_anti-symm   =  0.706951
  
Spin-orbit couplings
 Using HF (reference) density for the 2-elec mean-field SOC contribution
KET: S',Sz' (Root   5) =  2.000 2.000
BRA: S ,Sz  (Root   4) =  2.000 2.000
 1e Reduced matrix elements (cm-1)
<S|| Hso(L-) ||S'> =     0.0000000000    65.1793750516
<S|| Hso(L0) ||S'> =     0.0000000000     0.0000000000
<S|| Hso(L+) ||S'> =     0.0000000000   -65.1793750516
 1-elec SOC matrix (cm-1): < B(S,Sz) | Hso(1e) | A(S',Sz') >
                     |Sz'=-2.00>              |Sz'=-1.00>              |Sz'= 0.00>              |Sz'= 1.00>              |Sz'= 2.00>
 <Sz=-2.00|   -0.000000   -0.000000i     0.000000  -37.631330i     0.000000   -0.000000i     0.000000    0.000000i     0.000000    0.000000i
 <Sz=-1.00|   -0.000000  -37.631330i     0.000000   -0.000000i     0.000000  -46.088778i     0.000000    0.000000i     0.000000    0.000000i
 <Sz= 0.00|   -0.000000   -0.000000i    -0.000000  -46.088778i     0.000000   -0.000000i     0.000000  -46.088778i     0.000000    0.000000i
 <Sz= 1.00|    0.000000    0.000000i     0.000000    0.000000i    -0.000000  -46.088778i     0.000000    0.000000i     0.000000  -37.631330i
 <Sz= 2.00|    0.000000    0.000000i     0.000000    0.000000i     0.000000    0.000000i    -0.000000  -37.631330i     0.000000    0.000000i
1-elec SOCC =   119.000713333 cm-1
 2e-SOMF Reduced matrix elements (cm-1)
<S|| Hso(L-) ||S'> =    -0.0000000000   -25.6773522692
<S|| Hso(L0) ||S'> =     0.0000000000    -0.0000000000
<S|| Hso(L+) ||S'> =    -0.0000000000    25.6773522692
 2-elec mean-field SOC matrix (cm-1): < B(S,Sz) | Hso(2e-mf) | A(S',Sz') >
                     |Sz'=-2.00>              |Sz'=-1.00>              |Sz'= 0.00>              |Sz'= 1.00>              |Sz'= 2.00>
 <Sz=-2.00|    0.000000    0.000000i    -0.000000   14.824826i    -0.000000    0.000000i     0.000000    0.000000i     0.000000    0.000000i
 <Sz=-1.00|    0.000000   14.824826i    -0.000000    0.000000i    -0.000000   18.156630i     0.000000    0.000000i     0.000000    0.000000i
 <Sz= 0.00|    0.000000    0.000000i     0.000000   18.156630i    -0.000000    0.000000i    -0.000000   18.156630i     0.000000    0.000000i
 <Sz= 1.00|    0.000000    0.000000i     0.000000    0.000000i     0.000000   18.156630i     0.000000   -0.000000i    -0.000000   14.824826i
 <Sz= 2.00|    0.000000    0.000000i     0.000000    0.000000i     0.000000    0.000000i     0.000000   14.824826i     0.000000   -0.000000i
 Total mean-field SOC matrix (cm-1): < B(S,Sz) | Hsomf | A(S',Sz') >
                     |Sz'=-2.00>              |Sz'=-1.00>              |Sz'= 0.00>              |Sz'= 1.00>              |Sz'= 2.00>
 <Sz=-2.00|   -0.000000   -0.000000i     0.000000  -22.806503i     0.000000   -0.000000i     0.000000    0.000000i     0.000000    0.000000i
 <Sz=-1.00|   -0.000000  -22.806503i     0.000000   -0.000000i     0.000000  -27.932148i     0.000000    0.000000i     0.000000    0.000000i
 <Sz= 0.00|   -0.000000   -0.000000i    -0.000000  -27.932148i     0.000000   -0.000000i     0.000000  -27.932148i     0.000000    0.000000i
 <Sz= 1.00|    0.000000    0.000000i     0.000000    0.000000i    -0.000000  -27.932148i     0.000000    0.000000i     0.000000  -22.806503i
 <Sz= 2.00|    0.000000    0.000000i     0.000000    0.000000i     0.000000    0.000000i    -0.000000  -22.806503i     0.000000    0.000000i
Mean-Field SOCC =    72.120496483 cm-1
   
**************************************************
RAS-CI timing summary (seconds)
  CPU time          0.22s
  System time       0.00s
  Wall time         0.33s
  
 
 --------------------------------------------------------------
             Orbital Energies (a.u.) and Symmetries
 --------------------------------------------------------------
 
 Alpha MOs, Restricted
 -- Doubly Occupied --           
-20.956  -1.823  -1.150  -0.972
  1 A1    2 A1    1 B1    1 B2                                                 
 -- Singly Occupied (Occupied) --
 -1.135
  3 A1                                                                         
 -- Virtual --                   
  0.075   0.181
  4 A1    2 B1                                                                 
 
 Beta MOs, Restricted
 -- Doubly Occupied --           
-20.928  -1.700  -1.107  -0.916
  1 A1    2 A1    1 B1    1 B2                                                 
 -- Singly Occupied (Vacant) --  
 -0.292
  3 A1                                                                         
 -- Virtual --                   
  0.124   0.233
  4 A1    2 B1                                                                 
 --------------------------------------------------------------
 
          Ground-State Mulliken Net Atomic Charges

     Atom                 Charge (a.u.)
  ----------------------------------------
      1 O                     0.048961
      2 H                     0.475519
      3 H                     0.475519
  ----------------------------------------
  Sum of atomic charges =     1.000000

 -----------------------------------------------------------------
                    Cartesian Multipole Moments
 -----------------------------------------------------------------
    Charge (ESU x 10^10)
                 4.8032
    Dipole Moment (Debye)
         X      -0.0000      Y      -0.0000      Z      -1.8993
       Tot       1.8993
    Quadrupole Moments (Debye-Ang)
        XX      -1.7097     XY       0.0000     YY      -5.4316
        XZ       0.0000     YZ       0.0000     ZZ      -3.2320
    Octopole Moments (Debye-Ang^2)
       XXX      -0.0000    XXY      -0.0000    XYY      -0.0000
       YYY      -0.0000    XXZ      -1.7814    XYZ      -0.0000
       YYZ      -0.1378    XZZ       0.0000    YZZ      -0.0000
       ZZZ      -0.7126
    Hexadecapole Moments (Debye-Ang^3)
      XXXX      -3.1459   XXXY       0.0000   XXYY      -1.4108
      XYYY       0.0000   YYYY      -2.8013   XXXZ       0.0000
      XXYZ       0.0000   XYYZ       0.0000   YYYZ      -0.0000
      XXZZ      -0.6180   XYZZ       0.0000   YYZZ      -1.0158
      XZZZ       0.0000   YZZZ       0.0000   ZZZZ      -2.9171
 -----------------------------------------------------------------
 Mayer SCF Bond Order, atomic valence on the diagonal:

            1           2           3
    1   1.4912078   0.7456039   0.7456039
    2   0.7456039   0.7723315   0.0267276
    3   0.7456039   0.0267276   0.7723315


 Total job time:  1.30s(wall), 0.41s(cpu) 
 Wed Oct 25 18:15:24 2023

        *************************************************************
        *                                                           *
        *  Thank you very much for using Q-Chem.  Have a nice day.  *
        *                                                           *
        *************************************************************


