                  Welcome to Q-Chem
     A Quantum Leap Into The Future Of Chemistry


 Q-Chem 6.0 (devel), Q-Chem, Inc., Pleasanton, CA (2022)

 E. Epifanovsky,  A. T. B. Gilbert,  Xintian Feng,  Joonho Lee,  Yuezhi Mao,  
 N. Mardirossian,  P. Pokhilko,  A. White,  M. Wormit,  M. P. Coons,  
 A. L. Dempwolff,  Zhengting Gan,  D. Hait,  P. R. Horn,  L. D. Jacobson,  
 I. Kaliman,  J. Kussmann,  A. W. Lange,  Ka Un Lao,  D. S. Levine,  Jie Liu,  
 S. C. McKenzie,  A. F. Morrison,  K. Nanda,  F. Plasser,  D. R. Rehn,  
 M. L. Vidal,  Zhi-Qiang You,  Ying Zhu,  B. Alam,  B. Albrecht,  
 A. Aldossary,  E. Alguire,  J. H. Andersen,  V. Athavale,  D. Barton,  
 K. Begam,  A. Behn,  N. Bellonzi,  Y. A. Bernard,  E. J. Berquist,  
 H. Burton,  A. Carreras,  K. Carter-Fenk,  Romit Chakraborty,  
 Chandrima Chakravarty,  Junhan Chen,  A. D. Chien,  K. D. Closser,  
 V. Cofer-Shabica,  L. Cunha,  S. Dasgupta,  Jia Deng,  M. de Wergifosse,  
 M. Diedenhofen,  Hainam Do,  S. Ehlert,  Po-Tung Fang,  S. Fatehi,  
 Qingguo Feng,  T. Friedhoff,  B. Ganoe,  J. Gayvert,  Qinghui Ge,  
 G. Gidofalvi,  M. Goldey,  J. Gomes,  C. Gonzalez-Espinoza,  S. Gulania,  
 A. Gunina,  J. A. Gyamfi,  M. W. D. Hanson-Heine,  P. H. P. Harbach,  
 A. W. Hauser,  M. F. Herbst,  M. Hernandez Vera,  M. Hodecker,  
 Z. C. Holden,  S. Houck,  Xunkun Huang,  Kerwin Hui,  B. C. Huynh,  
 K. Ikeda,  M. Ivanov,  Hyunjun Ji,  Zuxin Jin,  Hanjie Jiang,  B. Kaduk,  
 S. Kaehler,  R. Kang,  K. Khistyaev,  Jaehoon Kim,  Yongbin Kim,  
 P. Klunzinger,  Z. Koczor-Benda,  Joong Hoon Koh,  D. Kosenkov,  
 Saikiran Kotaru,  L. Koulias,  T. Kowalczyk,  C. M. Krauter,  K. Kue,  
 A. Kunitsa,  T. Kus,  A. Landau,  K. V. Lawler,  D. Lefrancois,  S. Lehtola,  
 Rain Li,  Shaozhi Li,  Yi-Pei Li,  Jiashu Liang,  M. Liebenthal,  
 Hung-Hsuan Lin,  You-Sheng Lin,  Fenglai Liu,  Kuan-Yu Liu,  
 M. Loipersberger,  A. Luenser,  C. Malbon,  A. Manjanath,  P. Manohar,  
 E. Mansoor,  S. F. Manzer,  Shan-Ping Mao,  A. V. Marenich,  T. Markovich,  
 S. Mason,  F. Matz,  S. A. Maurer,  P. F. McLaughlin,  M. F. S. J. Menger,  
 J.-M. Mewes,  S. A. Mewes,  P. Morgante,  Mohammad Mostafanejad,  
 J. W. Mullinax,  K. J. Oosterbaan,  G. Paran,  V. Parravicini,  
 Alexander C. Paul,  Suranjan K. Paul,  F. Pavosevic,  Zheng Pei,  S. Prager,  
 E. I. Proynov,  E. Ramos,  B. Rana,  A. E. Rask,  A. Rettig,  R. M. Richard,  
 F. Rob,  E. Rossomme,  T. Scheele,  M. Scheurer,  M. Schneider,  
 P. E. Schneider,  N. Sergueev,  S. M. Sharada,  Hengyuan Shen,  
 W. Skomorowski,  D. W. Small,  C. J. Stein,  Yingli Su,  Yu-Chuan Su,  
 E. J. Sundstrom,  Zhen Tao,  J. Thirman,  Hung-Yi Tsai,  T. Tsuchimochi,  
 N. M. Tubman,  C. Utku,  S. P. Veccham,  O. Vydrov,  J. Wenzel,  
 Jonathan Wong,  J. Witte,  A. Yamada,  Chou-Hsun Yang,  Kun Yao,  
 S. Yeganeh,  S. R. Yost,  A. Zech,  F. Zeller,  Igor Ying Zhang,  
 Xing Zhang,  Yu Zhang,  D. Zuev,  A. Aspuru-Guzik,  A. T. Bell,  
 N. A. Besley,  K. B. Bravaya,  B. R. Brooks,  D. Casanova,  Jeng-Da Chai,  
 Hsing-Ta Chen,  S. Coriani,  C. J. Cramer,  A. E. DePrince, III,  
 R. A. DiStasio Jr.,  A. Dreuw,  B. D. Dunietz,  T. R. Furlani,  
 W. A. Goddard III,  S. Grimme,  S. Hammes-Schiffer,  T. Head-Gordon,  
 W. J. Hehre,  Chao-Ping Hsu,  T.-C. Jagau,  Yousung Jung,  A. Klamt,  
 Jing Kong,  D. S. Lambrecht,  Xiangyuan Li,  WanZhen Liang,  N. J. Mayhall,  
 C. W. McCurdy,  J. B. Neaton,  T. Neudecker,  C. Ochsenfeld,  
 J. A. Parkhill,  R. Peverati,  V. A. Rassolov,  Haisheng Ren,  Yihan Shao,  
 L. V. Slipchenko,  R. P. Steele,  J. E. Subotnik,  A. J. W. Thom,  
 A. Tkatchenko,  D. G. Truhlar,  T. Van Voorhis,  Fan Wang,  
 T. A. Wesolowski,  K. B. Whaley,  H. L. Woodcock III,  P. M. Zimmerman,  
 S. Faraji,  P. M. W. Gill,  M. Head-Gordon,  J. M. Herbert,  A. I. Krylov

 Contributors to earlier versions of Q-Chem not listed above: 
 R. D. Adamson,  B. Austin,  R. Baer,  J. Baker,  G. J. O. Beran,  
 K. Brandhorst,  S. T. Brown,  E. F. C. Byrd,  Arup K. Chakraborty,  
 G. K. L. Chan,  Chun-Min Chang,  Yunqing Chen,  C.-L. Cheng,  
 Siu Hung Chien,  D. M. Chipman,  D. L. Crittenden,  H. Dachsel,  
 R. J. Doerksen,  A. D. Dutoi,  R. G. Edgar,  J. Fosso-Tande,  
 L. Fusti-Molnar,  D. Ghosh,  A. Ghysels,  A. Golubeva-Zadorozhnaya,  
 J. Gonthier,  M. S. Gordon,  S. R. Gwaltney,  G. Hawkins,  J. E. Herr,  
 A. Heyden,  S. Hirata,  E. G. Hohenstein,  G. Kedziora,  F. J. Keil,  
 C. Kelley,  Jihan Kim,  R. A. King,  R. Z. Khaliullin,  P. P. Korambath,  
 W. Kurlancheek,  A. Laurent,  A. M. Lee,  M. S. Lee,  S. V. Levchenko,  
 Ching Yeh Lin,  D. Liotard,  E. Livshits,  R. C. Lochan,  I. Lotan,  
 L. A. Martinez-Martinez,  P. E. Maslen,  N. Nair,  D. P. O'Neill,  
 D. Neuhauser,  E. Neuscamman,  C. M. Oana,  R. Olivares-Amaya,  R. Olson,  
 T. M. Perrine,  B. Peters,  P. A. Pieniazek,  A. Prociuk,  Y. M. Rhee,  
 J. Ritchie,  M. A. Rohrdanz,  E. Rosta,  N. J. Russ,  H. F. Schaefer III,  
 M. W. Schmidt,  N. E. Schultz,  S. Sharma,  N. Shenvi,  C. D. Sherrill,  
 A. C. Simmonett,  A. Sodt,  T. Stein,  D. Stuck,  K. S. Thanthiriwatte,  
 V. Vanovschi,  L. Vogt,  Tao Wang,  A. Warshel,  M. A. Watson,  
 C. F. Williams,  Q. Wu,  X. Xu,  Jun Yang,  W. Zhang,  Yan Zhao

   Please cite Q-Chem as follows:
  "Software for the frontiers of quantum chemistry:
   An overview of developments in the Q-Chem 5 package"
   J. Chem. Phys. 155, 084801 (2021)
   https://doi.org/10.1063/5.0055522 (open access)

 Q-Chem 6.0.1 for Intel X86 EM64T Linux

 Parts of Q-Chem use Armadillo 9.900.5 (Nocturnal Misbehaviour).
 http://arma.sourceforge.net/

 Q-Chem begins on Wed Jun 21 11:13:07 2023  

 Host: atlas-198
0

     Scratch files written to ./qchem59548//
 Processing $rem in /scratch/abel/SOFTWARE/qchem/config/preferences:
 Processing $rem in /dipc/acebg/.qchemrc:

 Checking the input file for inconsistencies... 	...done.

--------------------------------------------------------------
User input:
--------------------------------------------------------------
$comment
 RAS-SF CALCULATION
$end

$molecule
 READ nbr.molecule
$end

$rem
!**CALCULATION TYPE***     
JOBTYPE            sp    
EXCHANGE           HF
CORRELATION        RASCI    !RASCI=Casanova; RASCI2=Zimmerman
BASIS              def2-TZVP

!***SCF REFERENCE***
!SKIP_SCFMAN        FALSE
UNRESTRICTED       FALSE
!SCF_GUESS          core
!SCF_GUESS_MIX      FALSE
!SCF_GUESS_ALWAYS   FALSE
MAX_SCF_CYCLES     500
!SCF_CONVERGENCE    8
!SCF_ALGORITHM      DIIS !DIIS,DM,DIIS_DM,GDM,DIIS_GDM,GD

!SYMMETRY           TRUE !use of symmetry for calculating integrals
!SYM_IGNORE         FALSE !turn off using symmetry
!SYM_TOL            5 !tolerance for determining point group

!THRESH             14
SCF_FINAL_PRINT     1 !0,1,2,3

!****RAS-SF****
RAS_ROOTS          20       !number of RAS-CI roots to be computed
SET_ITER           150      !number of iterations in RASCI
RAS_ELEC           12       !number of electrons in RAS2
RAS_ELEC_ALPHA     7       !spin-α electrons in RAS2 
RAS_ELEC_BETA      5       !spin-β electrons in RAS2

RAS_ACT            9       !number of orbitals in RAS2 
RAS_ACT_ORB   [16,17,18,19,20,21,22,23,24]  !user-selected RAS2 orbitals
RAS_OCC            15       !number of orbitals in RAS1
!N_FROZEN_CORE      0     !Number of frozen core orbitals
!N_FROZEN_VIRTUAL   25      !Number of frozen virtual orbitals

RAS_DO_HOLE        TRUE   !presence of hole excitations in RAS-CI wave function
RAS_DO_PART        TRUE   !presence of particle excitations
!RAS_AMPL_PRINT     10     !threshold (×10 2 ) for the CI amplitudes

!RAS_GUESS_CS       0      !number of closed shell guess conﬁgurations
!RAS_SPIN_MULT      0      !spin multiplicity: 0=any, 2n+1=defined 
!RAS_SRDFT          FALSE  !short-range density functional RAS-CI
!RAS_NFRAG          0     !fragments of excitation analysis in RASCI

RAS_PRINT          2      !level of information
RAS_NATORB         TRUE   !computation of the natural orbital occupancies
!RAS_NATORB_STATE  0      !Saves NO of i RAS computed state in .fchk ﬁle
!RAS_FOD            TRUE

!****RAS-SOC****
CALC_SOC           TRUE   !calculate SOC for EOM-CC, RAS-CI, ADC, TDDFT/TDA and TDDFT
!RAS_SOC_2E        TRUE   !two-electron mean-ﬁeld contribution, default=true
RAS_SOC_SYM_DENS   TRUE   !averaging of α and β densities

!****MEMORY****
MEM_TOTAL          60000 !Default 2000 MB
MEM_STATIC         16000  !Default 64 MB

!**Molecular Properties and Analysis **                                                                                          
!GUI                2
STATE_ANALYSIS     TRUE
MOLDEN_FORMAT      TRUE
PRINT_ORBITALS     20
$end                                           

--------------------------------------------------------------
 ----------------------------------------------------------------
             Standard Nuclear Orientation (Angstroms)
    I     Atom           X                Y                Z
 ----------------------------------------------------------------
    1      N       0.0000000000     0.0000000000    -1.4833333333
    2      Br      0.0000000000     0.0000000000     0.2966666667
 ----------------------------------------------------------------
 Molecular Point Group                 C2v   NOp =  4
 Largest Abelian Subgroup              C2v   NOp =  4
 Nuclear Repulsion Energy =          72.83618913 hartrees
 There are       22 alpha and       20 beta electrons
 Requested basis set is def2-TZVP
 There are 27 shells and 79 basis functions

 Q-Chem warning in module libmdc/get_mega.C, line 167:

 Allowed MEM_STATIC has been capped at MEM_STATIC=8191.
 Reduce the value of MEM_STATIC to silence this warning.


 Total QAlloc Memory Limit  60000 MB
 Mega-Array Size      8007 MB
 MEM_STATIC part      8191 MB


                       Distance Matrix (Angstroms)
             N (  1)
   Br(  2)  1.780000
 
 A cutoff of  1.0D-09 yielded    370 shell pairs
 There are      3270 function pairs (      4373 Cartesian)
 Smallest overlap matrix eigenvalue = 5.40E-03

 Scale SEOQF with 1.000000e+00/1.000000e+00/1.000000e-01

 Standard Electronic Orientation quadrupole field applied
 Nucleus-field energy     =    -0.0000000020 hartrees
 Guess from superposition of atomic densities
 Warning:  Energy on first SCF cycle will be non-variational
 SAD guess density has 42.000000 electrons

 -----------------------------------------------------------------------
  General SCF calculation program by
  Eric Jon Sundstrom, Paul Horn, Yuezhi Mao, Dmitri Zuev, Alec White,
  David Stuck, Shaama M.S., Shane Yost, Joonho Lee, David Small,
  Daniel Levine, Susi Lehtola, Hugh Burton, Evgeny Epifanovsky,
  Bang C. Huynh
 -----------------------------------------------------------------------
 Hartree-Fock
 Orthonormalizing orbitals
 A restricted open-shell SCF calculation will be
 performed using GDM
 SCF converges when RMS gradient is below 1.0e-05
 ---------------------------------------
  Cycle       Energy        RMS Gradient
 ---------------------------------------
    1   -2625.6165986798      4.36e-01   Descent step
    2   -2625.9331835207      4.17e-01   Descent step
Fro norm of D 1.114336433322e+00
transformation scaled by 2
    3   -2626.1747611981      6.76e-01   Descent step
    4   -2626.5196955565      2.84e-01   Descent step
    5   -2626.5974556798      8.96e-02   Dog-leg BFGS step
    6   -2626.6150862977      1.03e-01   Dog-leg BFGS step
    7   -2626.6045937912      1.40e-01  Line search: overstep
    8   -2626.6249259179      8.12e-02   Dog-leg BFGS step
    9   -2626.5845188304      1.96e-01  Line search: overstep
   10   -2626.6300245804      3.01e-02   Normal BFGS step
   11   -2626.6325476151      2.33e-02   Normal BFGS step
   12   -2626.6299585677      4.02e-02  Line search: overstep
   13   -2626.6337477500      1.34e-02   Normal BFGS step
   14   -2626.6340332042      4.05e-03   Normal BFGS step
   15   -2626.6340677874      2.11e-03   Normal BFGS step
   16   -2626.6340786675      1.72e-03   Normal BFGS step
   17   -2626.6340842698      8.68e-04   Normal BFGS step
   18   -2626.6340851965      7.65e-04   Normal BFGS step
   19   -2626.6340853735      2.98e-04   Normal BFGS step
   20   -2626.6340854209      2.56e-05   Normal BFGS step
   21   -2626.6340854237      6.04e-06  Convergence criterion met
The disked orbital energies are calculated using alpha and beta Focks
 ---------------------------------------
 Alpha HF Exchange    Energy = -48.67599220897556
 Beta HF Exchange     Energy = -47.54921583136611
 Nuclear Attraction   Energy =   0.00000000000000
 One-Electron (alpha) Energy = -1915.78354186136198
 One-Electron (beta)  Energy = -1884.06215685748657
 Total Coulomb        Energy = 1196.60063221052678
 Final Alpha MO Eigenvalues
            1           2           3           4           5           6
    1-490.1025627 -65.2426466 -58.6005614 -58.5959610 -58.5953337 -15.6450191
            7           8           9          10          11          12
    1  -9.9164603  -7.5354268  -7.5187226  -7.5167744  -3.2776188  -3.2710706
           13          14          15          16          17          18
    1  -3.2696887  -3.2518683  -3.2518401  -1.2092638  -0.9379620  -0.5504275
           19          20          21          22          23          24
    1  -0.5136029  -0.3966906  -0.6476717  -0.5190142   0.0974652   0.3076111
           25          26          27          28          29          30
    1   0.3452821   0.3513196   0.4108155   0.3996290   0.4249298   0.4244943
           31          32          33          34          35          36
    1   0.4573018   0.4815639   0.5231388   0.5409281   0.6861365   1.0600482
           37          38          39          40          41          42
    1   1.2093635   1.2110369   1.2817679   1.3071187   1.3958421   1.5484440
           43          44          45          46          47          48
    1   1.5484896   1.5779468   1.5898967   1.7708237   1.7708251   1.7978461
           49          50          51          52          53          54
    1   1.7991637   1.8058941   1.8270345   1.8326819   1.8469319   2.0431180
           55          56          57          58          59          60
    1   2.0678156   2.1531583   2.2671038   2.4501222   2.5024358   3.3684046
           61          62          63          64          65          66
    1   4.1463171   4.1712178   4.2149762   4.2165056   4.2313969   4.2316204
           67          68          69          70          71          72
    1   4.3942538   4.3952930   4.4118720   4.6960069   4.7224380   4.8381403
           73          74          75          76          77          78
    1   4.8411941   4.9197359   5.0456717   5.0964016   5.3665260   8.1262595
           79
    1  32.5994859
 Final Beta MO Eigenvalues
            1           2           3           4           5           6
    1-490.1009171 -65.2413432 -58.5958632 -58.5946215 -58.5947002 -15.5908868
            7           8           9          10          11          12
    1  -9.9128617  -7.5252367  -7.5159505  -7.5154243  -3.2722623  -3.2666421
           13          14          15          16          17          18
    1  -3.2662058  -3.2506258  -3.2506088  -1.1027131  -0.7935056  -0.5181302
           19          20          21          22          23          24
    1  -0.4752301  -0.3449336  -0.0380991   0.1832873   0.1627994   0.3255599
           25          26          27          28          29          30
    1   0.3514003   0.3550147   0.4430372   0.4694527   0.4309534   0.4365367
           31          32          33          34          35          36
    1   0.5290758   0.5077839   0.5641282   0.5551192   0.7193195   1.0808404
           37          38          39          40          41          42
    1   1.2847365   1.2836400   1.3674072   1.3534935   1.4496385   1.5534899
           43          44          45          46          47          48
    1   1.5535023   1.6087843   1.6097526   1.7754793   1.7754794   1.8184766
           49          50          51          52          53          54
    1   1.8186986   1.8236339   1.8347036   1.8369994   1.9022351   2.1069490
           55          56          57          58          59          60
    1   2.0952589   2.2372598   2.3221443   2.5604080   2.5295620   3.4089895
           61          62          63          64          65          66
    1   4.1917189   4.1964654   4.2696703   4.2690906   4.2900599   4.2900602
           67          68          69          70          71          72
    1   4.4054649   4.4050647   4.4494803   4.7382613   4.7440901   4.9374800
           73          74          75          76          77          78
    1   4.9360048   4.9433846   5.1652800   5.1613854   5.4495323   8.1342000
           79
    1  32.6387482
 SCF time:   CPU 18.83s  wall 20.00s 
<S^2> =          2.000000000
 SCF   energy in the final basis set =    -2626.6340854237
 Total energy in the final basis set =    -2626.6340854237
  
     ##========================================##
     ||                                        ||
     ||              R A S M A N 2             ||
     ||________________________________________||
     ||                                        ||
     ||  Author:                               ||
     ||                                        ||
     ||        David Casanova (2010)           ||
     ||                                        ||
     ##========================================##
  
Setting single-point xc-functionals (if necessary)

  ***************************************************
  *  RAS-CI Dimensions:                             *
  *                                                 *
  *  Active Elec.:  12 ( 7, 5)   Active Orb.:   9   *
  *  Doubly Occ. :  15           Doubly Vir.:  55   *
  *  Frozen Occ. :   0           Frozen Vir.:   0   *
  *                                                 *
  *  Total CI configurations:    898506             * 
  *    Active configurations:      4536             * 
  *      Hole configurations:     62370             * 
  *  Particle configurations:    831600             * 
  *                                                 *
  *   Requested states:       20                    *
  *  Spin multiplicity: Any multiplicity            *
  *                                                 *
  ***************************************************
-----------------------------------------
    Memory requirements of RASCI

 Each CI-vector requires      6.86 MiB 
 Max. subspace vectors           3000      

 Reduced Lists                0.00 MiB 
 Excitation Lists             0.01 MiB 
 Excitation Lists Sign        0.01 MiB 
 CI-space (Max)           20770.96 MiB 
 Integrals                    8.74 MiB 
 Memory required (Max)    20770.98 MiB 
 Memory available          7811.55 MiB 

 Q-Chem warning in module rasman2/ras_mem_check.C, line 162:

 Static memory may be insufficient to store the subspace vectors


    Disk requirements of RASCI

 Fock matrix                  0.10 MiB 
 2-electron integrals         9.93 MiB 
 CI-space                 41130.34 MiB 
 Disk required            41140.37 MiB 
-----------------------------------------
  
RAS1 HF-like energy:          -2593.6559478109
 Computing integrals
 Computing J and K matrices
 Computing addressing
 Making amplitude guesses
 
Direct CI diagonalization
 ---------------------------------------------------
 Iter    Rts Conv    Rts Left    Ttl Dev     Max Dev
 ---------------------------------------------------
   1         0          20      0.015091    0.001147
   2         0          20      0.008679    0.000653
   3         0          20      0.010277    0.000861
   4         0          20      0.006044    0.000466
   5         0          20      0.007897    0.000657
   6         0          20      0.010136    0.000855
   7         0          20      0.009518    0.000836
   8         0          20      0.008959    0.000889
   9         0          20      0.003598    0.000848
  10         0          20      0.004378    0.000843
  11         0          20      0.004271    0.000796
  12         0          20      0.005843    0.000931
  13         0          20      0.008050    0.001326
  14         0          20      0.010672    0.001800
  15         0          20      0.004840    0.000709
  16         0          20      0.003734    0.000534
  17         0          20      0.004002    0.000596
  18         0          20      0.004047    0.000706
  19         0          20      0.005644    0.000756
  20         0          20      0.007022    0.000928
  21         0          20      0.005279    0.000791
  22         0          20      0.003141    0.000477
  23         0          20      0.002711    0.000415
  24         0          20      0.002405    0.000355
  25         1          19      0.003185    0.000679
  26         1          19      0.005684    0.001384
  27         2          18      0.003345    0.000706
  28         2          18      0.002126    0.000430
  29         2          18      0.001575    0.000300
  30         2          18      0.001449    0.000290
  31         2          18      0.001538    0.000366
  32         3          17      0.002378    0.000517
  33         5          15      0.002062    0.000579
  34         4          16      0.001397    0.000371
  35         5          15      0.001236    0.000369
  36         8          12      0.001139    0.000351
  37         8          12      0.000875    0.000229
  38         9          11      0.000936    0.000230
  39         9          11      0.001040    0.000250
  40        10          10      0.000661    0.000168
  41        10          10      0.000535    0.000182
  42        10          10      0.000419    0.000151
  43        10          10      0.000325    0.000091
  44        10          10      0.000284    0.000075
  45        10          10      0.000345    0.000088
  46        10          10      0.000254    0.000067
  47        10          10      0.000180    0.000051
  48        10          10      0.000133    0.000039
  49        11           9      0.000111    0.000027
  50        12           8      0.000089    0.000024
  51        12           8      0.000106    0.000040
  52        14           6      0.000096    0.000026
  53        15           5      0.000063    0.000018
  54        15           5      0.000044    0.000011
  55        15           5      0.000040    0.000010
  56        15           5      0.000037    0.000008
  57        15           5      0.000042    0.000014
  58        16           4      0.000039    0.000012
  59        16           4      0.000031    0.000007
  60        18           2      0.000026    0.000005
  61        18           2      0.000023    0.000003
  62        18           2      0.000026    0.000005
  63        18           2      0.000025    0.000006
  64        19           1      0.000023    0.000004
  65        19           1      0.000020    0.000003
  66        19           1      0.000020    0.000003
  67        19           1      0.000020    0.000003
  68        19           1      0.000021    0.000003
  69        20           0      0.000021    0.000003    Roots Converged
 ---------------------------------------------------
   
**************************************************
 RAS-CI total energy for state   1:  -2626.931485445215
  Excitation energy (eV) =  0.000000000000
  State symmetry: A2    (C2v      )
  <S^2>      :  2.0000
  Dipole Moment:   -0.0000 X     0.0000 Y    -0.4363 Z
 NATURAL OCCUPATION NUMBERS (higher than 1.0E-05)
            1           2           3           4           5           6
    1   2.0000000   2.0000000   2.0000000   2.0000000   2.0000000   1.9999999
            7           8           9          10          11          12
    1   1.9999997   1.9999997   1.9999997   1.9999995   1.9999995   1.9999992
           13          14          15          16          17          18
    1   1.9999983   1.9999981   1.9999929   1.9903977   1.9765594   1.9718660
           19          20          21          22          23          24
    1   1.9715987   1.9405972   1.0123220   1.0121804   0.0679627   0.0084386
           25          26          27          28          29          30
    1   0.0082609   0.0059375   0.0043622   0.0032546   0.0032440   0.0031325
           31          32          33          34          35          36
    1   0.0024333   0.0024285   0.0023253   0.0022696   0.0018406   0.0013005
           37          38          39          40          41          42
    1   0.0012881   0.0011912   0.0011872   0.0005659   0.0003292   0.0002840
           43          44          45          46          47          48
    1   0.0002691   0.0002622   0.0002276   0.0002275   0.0001979   0.0001126
           49          50          51          52          53          54
    1   0.0001126   0.0000970   0.0000959   0.0000916   0.0000791   0.0000738
           55          56          57          58          59          60
    1   0.0000724   0.0000724   0.0000642   0.0000635   0.0000562   0.0000547
           61          62          63          64          65          66
    1   0.0000471   0.0000315   0.0000291   0.0000261   0.0000209   0.0000204
           67          68
    1   0.0000127   0.0000126
 Created directory ./qchem59548/plots

  Amplitudes : 
  
 | HOLE  | ALPHA     | BETA      | PART  |    AMPLITUDE 
--------------------------------------------------
 |       | 111111100 | 111101000 |       |     8.9443116975186E-01
 |       | 111111100 | 111001100 |       |    -1.2589602125238E-01
 |       | 111111100 | 110111000 |       |    -2.6618967982656E-01
--------------------------------------------------
*** Contributions RASCI wfn    Active:  93.40
                                 Hole:   0.00
                                 Part:   6.60

      Mulliken population analysis 
 ---------------------------------------------------
   Atom    Charge (a.u.)   Spin (a.u.)  
 ---------------------------------------------------
   1  N   -0.153828        1.764705 
   2 Br    0.153828        0.235295 
 ---------------------------------------------------
   Sum:   -0.000000        2.000000 
 ---------------------------------------------------
 
  
 NATURAL OCCUPATION NUMBERS (higher than 1.0E-05)
            1           2           3           4           5           6
    1   2.0000000   2.0000000   2.0000000   2.0000000   2.0000000   1.9999999
            7           8           9          10          11          12
    1   1.9999997   1.9999997   1.9999997   1.9999995   1.9999995   1.9999992
           13          14          15          16          17          18
    1   1.9999983   1.9999981   1.9999929   1.9903977   1.9765594   1.9718660
           19          20          21          22          23          24
    1   1.9715987   1.9405972   1.0123220   1.0121804   0.0679627   0.0084386
           25          26          27          28          29          30
    1   0.0082609   0.0059375   0.0043622   0.0032546   0.0032440   0.0031325
           31          32          33          34          35          36
    1   0.0024333   0.0024285   0.0023253   0.0022696   0.0018406   0.0013005
           37          38          39          40          41          42
    1   0.0012881   0.0011912   0.0011872   0.0005659   0.0003292   0.0002840
           43          44          45          46          47          48
    1   0.0002691   0.0002622   0.0002276   0.0002275   0.0001979   0.0001126
           49          50          51          52          53          54
    1   0.0001126   0.0000970   0.0000959   0.0000916   0.0000791   0.0000738
           55          56          57          58          59          60
    1   0.0000724   0.0000724   0.0000642   0.0000635   0.0000562   0.0000547
           61          62          63          64          65          66
    1   0.0000471   0.0000315   0.0000291   0.0000261   0.0000209   0.0000204
           67          68
    1   0.0000127   0.0000126
  
*** Unpaired Electrons
 Yamaguchi Nd:         2.54
 Head-Gordon Nu:       2.25
 Head-Gordon Nu_nl:    2.04
  
**************************************************
 RAS-CI total energy for state   2:  -2626.769136299380
  Excitation energy (eV) =  4.417745026000
  State symmetry: B1    (C2v      )
  <S^2>      :  2.0000
  Dipole Moment:   -0.0000 X    -0.0000 Y    -0.0085 Z
  Trans. Moment:    0.0000 X     0.0715 Y     0.0000 Z
  Strength   :  0.000553
  Natural transition orbitals ( 1 -> 2 ):
   e-/hole pair  1 alpha:  ampl =  0.906401 ( 82.2%)   [9 : 10]
   e-/hole pair  2 alpha:  ampl =  0.052105 (  0.3%)   [8 : 11]
   e-/hole pair  1 beta :  ampl =  0.079260 (  0.6%)   [9 : 10]
   e-/hole pair  2 beta :  ampl =  0.034097 (  0.1%)   [8 : 11]
   Sum of square amplitudes: 0.83

 NATURAL OCCUPATION NUMBERS (higher than 1.0E-05)
            1           2           3           4           5           6
    1   2.0000000   2.0000000   2.0000000   2.0000000   2.0000000   1.9999999
            7           8           9          10          11          12
    1   1.9999999   1.9999998   1.9999990   1.9999990   1.9999987   1.9999985
           13          14          15          16          17          18
    1   1.9999979   1.9999964   1.9999948   1.9887625   1.9698164   1.9619083
           19          20          21          22          23          24
    1   1.9506277   1.8507908   1.0226857   1.0044309   0.1848238   0.0128939
           25          26          27          28          29          30
    1   0.0074581   0.0068676   0.0056587   0.0047156   0.0040456   0.0038955
           31          32          33          34          35          36
    1   0.0024087   0.0023770   0.0023692   0.0023397   0.0016925   0.0015796
           37          38          39          40          41          42
    1   0.0014989   0.0010997   0.0007676   0.0006488   0.0005382   0.0004024
           43          44          45          46          47          48
    1   0.0003147   0.0003139   0.0003026   0.0002465   0.0002359   0.0002099
           49          50          51          52          53          54
    1   0.0001805   0.0001104   0.0001087   0.0000885   0.0000857   0.0000795
           55          56          57          58          59          60
    1   0.0000692   0.0000672   0.0000622   0.0000573   0.0000487   0.0000469
           61          62          63          64          65          66
    1   0.0000467   0.0000394   0.0000368   0.0000346   0.0000326   0.0000272
           67          68
    1   0.0000216   0.0000104

  Amplitudes : 
  
 | HOLE  | ALPHA     | BETA      | PART  |    AMPLITUDE 
--------------------------------------------------
 |       | 111111010 | 111101000 |       |    -7.1837848803190E-01
 |       | 111111010 | 111001100 |       |     3.0652193045734E-01
 |       | 111111010 | 110111000 |       |     1.1324923101424E-01
 |       | 111111010 | 110011100 |       |     1.2720280945517E-01
 |       | 111111001 | 111101000 |       |     1.5798195861670E-01
 |       | 111011110 | 111101000 |       |    -3.9288892709232E-01
 |       | 111011110 | 110111000 |       |     1.8352223771630E-01
--------------------------------------------------
*** Contributions RASCI wfn    Active:  91.12
                                 Hole:   0.00
                                 Part:   8.88

      Mulliken population analysis 
 ---------------------------------------------------
   Atom    Charge (a.u.)   Spin (a.u.)  
 ---------------------------------------------------
   1  N   -0.017939        1.280331 
   2 Br    0.017939        0.719669 
 ---------------------------------------------------
   Sum:   -0.000000        2.000000 
 ---------------------------------------------------
 
  
 NATURAL OCCUPATION NUMBERS (higher than 1.0E-05)
            1           2           3           4           5           6
    1   2.0000000   2.0000000   2.0000000   2.0000000   2.0000000   1.9999999
            7           8           9          10          11          12
    1   1.9999999   1.9999998   1.9999990   1.9999990   1.9999987   1.9999985
           13          14          15          16          17          18
    1   1.9999979   1.9999964   1.9999948   1.9887625   1.9698164   1.9619083
           19          20          21          22          23          24
    1   1.9506277   1.8507908   1.0226857   1.0044309   0.1848238   0.0128939
           25          26          27          28          29          30
    1   0.0074581   0.0068676   0.0056587   0.0047156   0.0040456   0.0038955
           31          32          33          34          35          36
    1   0.0024087   0.0023770   0.0023692   0.0023397   0.0016925   0.0015796
           37          38          39          40          41          42
    1   0.0014989   0.0010997   0.0007676   0.0006488   0.0005382   0.0004024
           43          44          45          46          47          48
    1   0.0003147   0.0003139   0.0003026   0.0002465   0.0002359   0.0002099
           49          50          51          52          53          54
    1   0.0001805   0.0001104   0.0001087   0.0000885   0.0000857   0.0000795
           55          56          57          58          59          60
    1   0.0000692   0.0000672   0.0000622   0.0000573   0.0000487   0.0000469
           61          62          63          64          65          66
    1   0.0000467   0.0000394   0.0000368   0.0000346   0.0000326   0.0000272
           67          68
    1   0.0000216   0.0000104
  
*** Unpaired Electrons
 Yamaguchi Nd:         3.00
 Head-Gordon Nu:       2.50
 Head-Gordon Nu_nl:    2.21
  
**************************************************
 RAS-CI total energy for state   3:  -2626.768713353077
  Excitation energy (eV) =  4.429253980457
  State symmetry: B2    (C2v      )
  <S^2>      :  2.0000
  Dipole Moment:   -0.0000 X    -0.0000 Y    -0.0146 Z
  Trans. Moment:    0.0764 X    -0.0000 Y     0.0000 Z
  Strength   :  0.000633
  Natural transition orbitals ( 1 -> 3 ):
   e-/hole pair  1 alpha:  ampl =  0.907697 ( 82.4%)   [9 : 10]
   e-/hole pair  2 alpha:  ampl =  0.052137 (  0.3%)   [8 : 11]
   e-/hole pair  1 beta :  ampl =  0.069440 (  0.5%)   [9 : 10]
   e-/hole pair  2 beta :  ampl =  0.033267 (  0.1%)   [8 : 11]
   Sum of square amplitudes: 0.83

 NATURAL OCCUPATION NUMBERS (higher than 1.0E-05)
            1           2           3           4           5           6
    1   2.0000000   2.0000000   2.0000000   2.0000000   2.0000000   1.9999999
            7           8           9          10          11          12
    1   1.9999999   1.9999998   1.9999992   1.9999990   1.9999989   1.9999984
           13          14          15          16          17          18
    1   1.9999979   1.9999962   1.9999949   1.9888166   1.9697665   1.9617465
           19          20          21          22          23          24
    1   1.9525112   1.8503895   1.0229271   1.0060363   0.1817325   0.0129653
           25          26          27          28          29          30
    1   0.0071843   0.0068604   0.0056315   0.0046791   0.0040237   0.0039798
           31          32          33          34          35          36
    1   0.0024379   0.0023807   0.0023804   0.0023319   0.0017210   0.0015658
           37          38          39          40          41          42
    1   0.0014778   0.0010837   0.0008684   0.0006451   0.0005352   0.0004024
           43          44          45          46          47          48
    1   0.0003240   0.0003128   0.0003054   0.0002545   0.0002433   0.0002096
           49          50          51          52          53          54
    1   0.0001814   0.0001174   0.0001053   0.0000848   0.0000808   0.0000786
           55          56          57          58          59          60
    1   0.0000695   0.0000689   0.0000614   0.0000583   0.0000510   0.0000476
           61          62          63          64          65          66
    1   0.0000472   0.0000407   0.0000370   0.0000342   0.0000315   0.0000239
           67
    1   0.0000216

  Amplitudes : 
  
 | HOLE  | ALPHA     | BETA      | PART  |    AMPLITUDE 
--------------------------------------------------
 |       | 111101110 | 111101000 |       |     8.6176874553742E-01
 |       | 111101110 | 111001100 |       |    -1.7546570619080E-01
 |       | 111101101 | 111101000 |       |    -1.8351523770531E-01
 |       | 110111110 | 110111000 |       |    -1.8635138811446E-01
--------------------------------------------------
*** Contributions RASCI wfn    Active:  91.37
                                 Hole:   0.00
                                 Part:   8.63

      Mulliken population analysis 
 ---------------------------------------------------
   Atom    Charge (a.u.)   Spin (a.u.)  
 ---------------------------------------------------
   1  N   -0.018186        1.285287 
   2 Br    0.018186        0.714713 
 ---------------------------------------------------
   Sum:   -0.000000        2.000000 
 ---------------------------------------------------
 
  
 NATURAL OCCUPATION NUMBERS (higher than 1.0E-05)
            1           2           3           4           5           6
    1   2.0000000   2.0000000   2.0000000   2.0000000   2.0000000   1.9999999
            7           8           9          10          11          12
    1   1.9999999   1.9999998   1.9999992   1.9999990   1.9999989   1.9999984
           13          14          15          16          17          18
    1   1.9999979   1.9999962   1.9999949   1.9888166   1.9697665   1.9617465
           19          20          21          22          23          24
    1   1.9525112   1.8503895   1.0229271   1.0060363   0.1817325   0.0129653
           25          26          27          28          29          30
    1   0.0071843   0.0068604   0.0056315   0.0046791   0.0040237   0.0039798
           31          32          33          34          35          36
    1   0.0024379   0.0023807   0.0023804   0.0023319   0.0017210   0.0015658
           37          38          39          40          41          42
    1   0.0014778   0.0010837   0.0008684   0.0006451   0.0005352   0.0004024
           43          44          45          46          47          48
    1   0.0003240   0.0003128   0.0003054   0.0002545   0.0002433   0.0002096
           49          50          51          52          53          54
    1   0.0001814   0.0001174   0.0001053   0.0000848   0.0000808   0.0000786
           55          56          57          58          59          60
    1   0.0000695   0.0000689   0.0000614   0.0000583   0.0000510   0.0000476
           61          62          63          64          65          66
    1   0.0000472   0.0000407   0.0000370   0.0000342   0.0000315   0.0000239
           67
    1   0.0000216
  
*** Unpaired Electrons
 Yamaguchi Nd:         2.99
 Head-Gordon Nu:       2.50
 Head-Gordon Nu_nl:    2.20
  
**************************************************
 RAS-CI total energy for state   4:  -2626.755633277769
  Excitation energy (eV) =  4.785180938585
  State symmetry: B2    (C2v      )
  <S^2>      :  2.0000
  Dipole Moment:   -0.0000 X    -0.0000 Y    -0.5530 Z
  Trans. Moment:    0.1433 X    -0.0000 Y    -0.0000 Z
  Strength   :  0.002407
  Natural transition orbitals ( 1 -> 4 ):
   e-/hole pair  1 alpha:  ampl =  0.057784 (  0.3%)   [9 : 10]
   e-/hole pair  2 alpha:  ampl =  0.033065 (  0.1%)   [8 : 11]
   e-/hole pair  1 beta :  ampl =  0.951330 ( 90.5%)   [9 : 10]
   e-/hole pair  2 beta :  ampl =  0.058778 (  0.3%)   [8 : 11]
   Sum of square amplitudes: 0.92

 NATURAL OCCUPATION NUMBERS (higher than 1.0E-05)
            1           2           3           4           5           6
    1   2.0000000   2.0000000   2.0000000   2.0000000   2.0000000   1.9999999
            7           8           9          10          11          12
    1   1.9999999   1.9999998   1.9999998   1.9999998   1.9999990   1.9999986
           13          14          15          16          17          18
    1   1.9999985   1.9999978   1.9999875   1.9867668   1.9859563   1.9736707
           19          20          21          22          23          24
    1   1.9660183   1.9600923   1.0095891   1.0061851   0.0554981   0.0109180
           25          26          27          28          29          30
    1   0.0085194   0.0048788   0.0035604   0.0031707   0.0028498   0.0026201
           31          32          33          34          35          36
    1   0.0025241   0.0021637   0.0021371   0.0020117   0.0018581   0.0015137
           37          38          39          40          41          42
    1   0.0013130   0.0012813   0.0011728   0.0004609   0.0004069   0.0003639
           43          44          45          46          47          48
    1   0.0003061   0.0003016   0.0002929   0.0002365   0.0001827   0.0001157
           49          50          51          52          53          54
    1   0.0001003   0.0000987   0.0000969   0.0000916   0.0000881   0.0000860
           55          56          57          58          59          60
    1   0.0000755   0.0000665   0.0000521   0.0000495   0.0000452   0.0000429
           61          62          63          64          65          66
    1   0.0000319   0.0000273   0.0000220   0.0000199   0.0000180   0.0000167
           67          68          69
    1   0.0000151   0.0000137   0.0000103

  Amplitudes : 
  
 | HOLE  | ALPHA     | BETA      | PART  |    AMPLITUDE 
--------------------------------------------------
 |       | 111111100 | 111110000 |       |     9.5093451662320E-01
 |       | 111111100 | 111010100 |       |    -1.0021145758439E-01
--------------------------------------------------
*** Contributions RASCI wfn    Active:  94.40
                                 Hole:   0.00
                                 Part:   5.60

      Mulliken population analysis 
 ---------------------------------------------------
   Atom    Charge (a.u.)   Spin (a.u.)  
 ---------------------------------------------------
   1  N   -0.294461        1.524588 
   2 Br    0.294461        0.475412 
 ---------------------------------------------------
   Sum:   -0.000000        2.000000 
 ---------------------------------------------------
 
  
 NATURAL OCCUPATION NUMBERS (higher than 1.0E-05)
            1           2           3           4           5           6
    1   2.0000000   2.0000000   2.0000000   2.0000000   2.0000000   1.9999999
            7           8           9          10          11          12
    1   1.9999999   1.9999998   1.9999998   1.9999998   1.9999990   1.9999986
           13          14          15          16          17          18
    1   1.9999985   1.9999978   1.9999875   1.9867668   1.9859563   1.9736707
           19          20          21          22          23          24
    1   1.9660183   1.9600923   1.0095891   1.0061851   0.0554981   0.0109180
           25          26          27          28          29          30
    1   0.0085194   0.0048788   0.0035604   0.0031707   0.0028498   0.0026201
           31          32          33          34          35          36
    1   0.0025241   0.0021637   0.0021371   0.0020117   0.0018581   0.0015137
           37          38          39          40          41          42
    1   0.0013130   0.0012813   0.0011728   0.0004609   0.0004069   0.0003639
           43          44          45          46          47          48
    1   0.0003061   0.0003016   0.0002929   0.0002365   0.0001827   0.0001157
           49          50          51          52          53          54
    1   0.0001003   0.0000987   0.0000969   0.0000916   0.0000881   0.0000860
           55          56          57          58          59          60
    1   0.0000755   0.0000665   0.0000521   0.0000495   0.0000452   0.0000429
           61          62          63          64          65          66
    1   0.0000319   0.0000273   0.0000220   0.0000199   0.0000180   0.0000167
           67          68          69
    1   0.0000151   0.0000137   0.0000103
  
*** Unpaired Electrons
 Yamaguchi Nd:         2.47
 Head-Gordon Nu:       2.22
 Head-Gordon Nu_nl:    2.03
  
**************************************************
 RAS-CI total energy for state   5:  -2626.754144734241
  Excitation energy (eV) =  4.825686268849
  State symmetry: B1    (C2v      )
  <S^2>      :  2.0000
  Dipole Moment:    0.0000 X    -0.0000 Y    -0.5626 Z
  Trans. Moment:   -0.0000 X    -0.1394 Y     0.0000 Z
  Strength   :  0.002299
  Natural transition orbitals ( 1 -> 5 ):
   e-/hole pair  1 alpha:  ampl =  0.067758 (  0.5%)   [9 : 10]
   e-/hole pair  2 alpha:  ampl =  0.034175 (  0.1%)   [8 : 11]
   e-/hole pair  1 beta :  ampl =  0.950300 ( 90.3%)   [9 : 10]
   e-/hole pair  2 beta :  ampl =  0.058776 (  0.3%)   [8 : 11]
   Sum of square amplitudes: 0.92

 NATURAL OCCUPATION NUMBERS (higher than 1.0E-05)
            1           2           3           4           5           6
    1   2.0000000   2.0000000   2.0000000   2.0000000   2.0000000   1.9999999
            7           8           9          10          11          12
    1   1.9999999   1.9999998   1.9999998   1.9999997   1.9999990   1.9999985
           13          14          15          16          17          18
    1   1.9999985   1.9999977   1.9999878   1.9869301   1.9857915   1.9742490
           19          20          21          22          23          24
    1   1.9625674   1.9604162   1.0110909   1.0062410   0.0564992   0.0110597
           25          26          27          28          29          30
    1   0.0085431   0.0047949   0.0034403   0.0032151   0.0028296   0.0026051
           31          32          33          34          35          36
    1   0.0025417   0.0021547   0.0021394   0.0020026   0.0019005   0.0014669
           37          38          39          40          41          42
    1   0.0013072   0.0012723   0.0011812   0.0004543   0.0004085   0.0003623
           43          44          45          46          47          48
    1   0.0003042   0.0003025   0.0002974   0.0002294   0.0001802   0.0001161
           49          50          51          52          53          54
    1   0.0001005   0.0000985   0.0000970   0.0000907   0.0000872   0.0000856
           55          56          57          58          59          60
    1   0.0000781   0.0000684   0.0000591   0.0000521   0.0000497   0.0000474
           61          62          63          64          65          66
    1   0.0000446   0.0000320   0.0000216   0.0000197   0.0000192   0.0000186
           67          68          69
    1   0.0000154   0.0000142   0.0000100

  Amplitudes : 
  
 | HOLE  | ALPHA     | BETA      | PART  |    AMPLITUDE 
--------------------------------------------------
 |       | 111111100 | 111100100 |       |     8.9359930001157E-01
 |       | 111111100 | 110110100 |       |    -3.2274657352319E-01
--------------------------------------------------
*** Contributions RASCI wfn    Active:  93.37
                                 Hole:   0.00
                                 Part:   6.62

      Mulliken population analysis 
 ---------------------------------------------------
   Atom    Charge (a.u.)   Spin (a.u.)  
 ---------------------------------------------------
   1  N   -0.294904        1.518657 
   2 Br    0.294904        0.481343 
 ---------------------------------------------------
   Sum:   -0.000000        2.000000 
 ---------------------------------------------------
 
  
 NATURAL OCCUPATION NUMBERS (higher than 1.0E-05)
            1           2           3           4           5           6
    1   2.0000000   2.0000000   2.0000000   2.0000000   2.0000000   1.9999999
            7           8           9          10          11          12
    1   1.9999999   1.9999998   1.9999998   1.9999997   1.9999990   1.9999985
           13          14          15          16          17          18
    1   1.9999985   1.9999977   1.9999878   1.9869301   1.9857915   1.9742490
           19          20          21          22          23          24
    1   1.9625674   1.9604162   1.0110909   1.0062410   0.0564992   0.0110597
           25          26          27          28          29          30
    1   0.0085431   0.0047949   0.0034403   0.0032151   0.0028296   0.0026051
           31          32          33          34          35          36
    1   0.0025417   0.0021547   0.0021394   0.0020026   0.0019005   0.0014669
           37          38          39          40          41          42
    1   0.0013072   0.0012723   0.0011812   0.0004543   0.0004085   0.0003623
           43          44          45          46          47          48
    1   0.0003042   0.0003025   0.0002974   0.0002294   0.0001802   0.0001161
           49          50          51          52          53          54
    1   0.0001005   0.0000985   0.0000970   0.0000907   0.0000872   0.0000856
           55          56          57          58          59          60
    1   0.0000781   0.0000684   0.0000591   0.0000521   0.0000497   0.0000474
           61          62          63          64          65          66
    1   0.0000446   0.0000320   0.0000216   0.0000197   0.0000192   0.0000186
           67          68          69
    1   0.0000154   0.0000142   0.0000100
  
*** Unpaired Electrons
 Yamaguchi Nd:         2.48
 Head-Gordon Nu:       2.23
 Head-Gordon Nu_nl:    2.03
  
**************************************************
 RAS-CI total energy for state   6:  -2626.744159036250
  Excitation energy (eV) =  5.097410936100
  State symmetry: A2    (C2v      )
  <S^2>      :  2.0000
  Dipole Moment:   -0.0000 X     0.0000 Y    -1.3679 Z
  Trans. Moment:    0.0000 X     0.0000 Y    -0.0312 Z
  Strength   :  0.000122
  Natural transition orbitals ( 1 -> 6 ):
   e-/hole pair  1 alpha:  ampl =  0.021236 (  0.0%)   [9 : 10]
   e-/hole pair  2 alpha:  ampl =  0.016164 (  0.0%)   [8 : 11]
   e-/hole pair  1 beta :  ampl =  0.679819 ( 46.2%)   [9 : 10]
   e-/hole pair  2 beta :  ampl =  0.624416 ( 39.0%)   [8 : 11]
   Sum of square amplitudes: 0.86

 NATURAL OCCUPATION NUMBERS (higher than 1.0E-05)
            1           2           3           4           5           6
    1   2.0000000   2.0000000   2.0000000   2.0000000   2.0000000   1.9999999
            7           8           9          10          11          12
    1   1.9999999   1.9999994   1.9999993   1.9999992   1.9999981   1.9999977
           13          14          15          16          17          18
    1   1.9999960   1.9999955   1.9999942   1.9857320   1.9778888   1.9472839
           19          20          21          22          23          24
    1   1.5388049   1.5268387   1.4583777   1.4452754   0.0622932   0.0087847
           25          26          27          28          29          30
    1   0.0082250   0.0051860   0.0042610   0.0040151   0.0038515   0.0029268
           31          32          33          34          35          36
    1   0.0023943   0.0023366   0.0022855   0.0021712   0.0014460   0.0012408
           37          38          39          40          41          42
    1   0.0012046   0.0011224   0.0010671   0.0005791   0.0005765   0.0004755
           43          44          45          46          47          48
    1   0.0004361   0.0003784   0.0003181   0.0003126   0.0003081   0.0002446
           49          50          51          52          53          54
    1   0.0001522   0.0001451   0.0001383   0.0000960   0.0000934   0.0000908
           55          56          57          58          59          60
    1   0.0000714   0.0000678   0.0000673   0.0000596   0.0000572   0.0000546
           61          62          63          64          65          66
    1   0.0000480   0.0000474   0.0000373   0.0000373   0.0000364   0.0000194
           67          68
    1   0.0000182   0.0000142

  Amplitudes : 
  
 | HOLE  | ALPHA     | BETA      | PART  |    AMPLITUDE 
--------------------------------------------------
 |       | 111111100 | 111101000 |       |     2.7642416151752E-01
 |       | 111111100 | 111001100 |       |     5.3850578985541E-01
 |       | 111111100 | 111000110 |       |     1.2254032487730E-01
 |       | 111111100 | 110111000 |       |     5.9514137794387E-01
 |       | 111111100 | 110110010 |       |    -1.3315735052475E-01
 |       | 111111100 | 110011100 |       |     2.6400773768752E-01
 |       | 111110110 | 111001100 |       |     1.2786023995177E-01
 |       | 111110110 | 110111000 |       |     1.3788345609639E-01
--------------------------------------------------
*** Contributions RASCI wfn    Active:  90.00
                                 Hole:   0.00
                                 Part:  10.00

      Mulliken population analysis 
 ---------------------------------------------------
   Atom    Charge (a.u.)   Spin (a.u.)  
 ---------------------------------------------------
   1  N   -0.510639        0.952795 
   2 Br    0.510639        1.047205 
 ---------------------------------------------------
   Sum:   -0.000000        2.000000 
 ---------------------------------------------------
 
  
 NATURAL OCCUPATION NUMBERS (higher than 1.0E-05)
            1           2           3           4           5           6
    1   2.0000000   2.0000000   2.0000000   2.0000000   2.0000000   1.9999999
            7           8           9          10          11          12
    1   1.9999999   1.9999994   1.9999993   1.9999992   1.9999981   1.9999977
           13          14          15          16          17          18
    1   1.9999960   1.9999955   1.9999942   1.9857320   1.9778888   1.9472839
           19          20          21          22          23          24
    1   1.5388049   1.5268387   1.4583777   1.4452754   0.0622932   0.0087847
           25          26          27          28          29          30
    1   0.0082250   0.0051860   0.0042610   0.0040151   0.0038515   0.0029268
           31          32          33          34          35          36
    1   0.0023943   0.0023366   0.0022855   0.0021712   0.0014460   0.0012408
           37          38          39          40          41          42
    1   0.0012046   0.0011224   0.0010671   0.0005791   0.0005765   0.0004755
           43          44          45          46          47          48
    1   0.0004361   0.0003784   0.0003181   0.0003126   0.0003081   0.0002446
           49          50          51          52          53          54
    1   0.0001522   0.0001451   0.0001383   0.0000960   0.0000934   0.0000908
           55          56          57          58          59          60
    1   0.0000714   0.0000678   0.0000673   0.0000596   0.0000572   0.0000546
           61          62          63          64          65          66
    1   0.0000480   0.0000474   0.0000373   0.0000373   0.0000364   0.0000194
           67          68
    1   0.0000182   0.0000142
  
*** Unpaired Electrons
 Yamaguchi Nd:         3.43
 Head-Gordon Nu:       2.24
 Head-Gordon Nu_nl:    2.32
  
**************************************************
 RAS-CI total energy for state   7:  -2626.744113625009
  Excitation energy (eV) =  5.098646638827
  State symmetry: A1    (C2v      )
  <S^2>      :  2.0000
  Dipole Moment:    0.0000 X    -0.0000 Y    -1.3684 Z
  Trans. Moment:    0.0000 X     0.0000 Y    -0.0000 Z
  Strength   :  0.000000
  Natural transition orbitals ( 1 -> 7 ):
   e-/hole pair  1 alpha:  ampl =  0.018085 (  0.0%)   [9 : 10]
   e-/hole pair  2 alpha:  ampl =  0.017787 (  0.0%)   [8 : 11]
   e-/hole pair  1 beta :  ampl =  0.679119 ( 46.1%)   [9 : 10]
   e-/hole pair  2 beta :  ampl =  0.625295 ( 39.1%)   [8 : 11]
   Sum of square amplitudes: 0.86

 NATURAL OCCUPATION NUMBERS (higher than 1.0E-05)
            1           2           3           4           5           6
    1   2.0000000   2.0000000   2.0000000   2.0000000   2.0000000   1.9999999
            7           8           9          10          11          12
    1   1.9999999   1.9999994   1.9999993   1.9999992   1.9999981   1.9999977
           13          14          15          16          17          18
    1   1.9999961   1.9999954   1.9999942   1.9857343   1.9779018   1.9474148
           19          20          21          22          23          24
    1   1.5393787   1.5256602   1.4598288   1.4445185   0.0621509   0.0088426
           25          26          27          28          29          30
    1   0.0081148   0.0051628   0.0042649   0.0040949   0.0037605   0.0029251
           31          32          33          34          35          36
    1   0.0023641   0.0023608   0.0022854   0.0021802   0.0014367   0.0012781
           37          38          39          40          41          42
    1   0.0011811   0.0011286   0.0010508   0.0005776   0.0005757   0.0004755
           43          44          45          46          47          48
    1   0.0004368   0.0003775   0.0003196   0.0003122   0.0003062   0.0002438
           49          50          51          52          53          54
    1   0.0001519   0.0001495   0.0001367   0.0000935   0.0000924   0.0000896
           55          56          57          58          59          60
    1   0.0000704   0.0000690   0.0000685   0.0000591   0.0000571   0.0000545
           61          62          63          64          65          66
    1   0.0000477   0.0000472   0.0000371   0.0000369   0.0000368   0.0000188
           67          68
    1   0.0000187   0.0000141

  Amplitudes : 
  
 | HOLE  | ALPHA     | BETA      | PART  |    AMPLITUDE 
--------------------------------------------------
 |       | 111111100 | 111011000 |       |     6.5624102065042E-01
 |       | 111111100 | 111010010 |       |    -1.4931366700878E-01
 |       | 111111100 | 110101100 |       |    -5.9976537976536E-01
 |       | 111111100 | 110100110 |       |    -1.3762994680126E-01
 |       | 111110110 | 111011000 |       |     1.5586526336156E-01
 |       | 111110110 | 110101100 |       |    -1.4403786703555E-01
--------------------------------------------------
*** Contributions RASCI wfn    Active:  90.00
                                 Hole:   0.00
                                 Part:  10.00

      Mulliken population analysis 
 ---------------------------------------------------
   Atom    Charge (a.u.)   Spin (a.u.)  
 ---------------------------------------------------
   1  N   -0.510777        0.952449 
   2 Br    0.510777        1.047551 
 ---------------------------------------------------
   Sum:   -0.000000        2.000000 
 ---------------------------------------------------
 
  
 NATURAL OCCUPATION NUMBERS (higher than 1.0E-05)
            1           2           3           4           5           6
    1   2.0000000   2.0000000   2.0000000   2.0000000   2.0000000   1.9999999
            7           8           9          10          11          12
    1   1.9999999   1.9999994   1.9999993   1.9999992   1.9999981   1.9999977
           13          14          15          16          17          18
    1   1.9999961   1.9999954   1.9999942   1.9857343   1.9779018   1.9474148
           19          20          21          22          23          24
    1   1.5393787   1.5256602   1.4598288   1.4445185   0.0621509   0.0088426
           25          26          27          28          29          30
    1   0.0081148   0.0051628   0.0042649   0.0040949   0.0037605   0.0029251
           31          32          33          34          35          36
    1   0.0023641   0.0023608   0.0022854   0.0021802   0.0014367   0.0012781
           37          38          39          40          41          42
    1   0.0011811   0.0011286   0.0010508   0.0005776   0.0005757   0.0004755
           43          44          45          46          47          48
    1   0.0004368   0.0003775   0.0003196   0.0003122   0.0003062   0.0002438
           49          50          51          52          53          54
    1   0.0001519   0.0001495   0.0001367   0.0000935   0.0000924   0.0000896
           55          56          57          58          59          60
    1   0.0000704   0.0000690   0.0000685   0.0000591   0.0000571   0.0000545
           61          62          63          64          65          66
    1   0.0000477   0.0000472   0.0000371   0.0000369   0.0000368   0.0000188
           67          68
    1   0.0000187   0.0000141
  
*** Unpaired Electrons
 Yamaguchi Nd:         3.43
 Head-Gordon Nu:       2.24
 Head-Gordon Nu_nl:    2.32
  
**************************************************
 RAS-CI total energy for state   8:  -2626.740002110229
  Excitation energy (eV) =  5.210526648265
  State symmetry: A1    (C2v      )
  <S^2>      :  2.0000
  Dipole Moment:   -0.0000 X    -0.0000 Y    -1.3713 Z
  Trans. Moment:   -0.0000 X    -0.0000 Y     0.0000 Z
  Strength   :  0.000000
  Natural transition orbitals ( 1 -> 8 ):
   e-/hole pair  1 alpha:  ampl =  0.004197 (  0.0%)   [9 : 10]
   e-/hole pair  2 alpha:  ampl =  0.002961 (  0.0%)   [8 : 11]
   e-/hole pair  1 beta :  ampl =  0.677792 ( 45.9%)   [9 : 10]
   e-/hole pair  2 beta :  ampl =  0.625423 ( 39.1%)   [8 : 11]
   Sum of square amplitudes: 0.85

 NATURAL OCCUPATION NUMBERS (higher than 1.0E-05)
            1           2           3           4           5           6
    1   2.0000000   2.0000000   2.0000000   2.0000000   2.0000000   1.9999999
            7           8           9          10          11          12
    1   1.9999999   1.9999994   1.9999993   1.9999992   1.9999981   1.9999981
           13          14          15          16          17          18
    1   1.9999960   1.9999955   1.9999941   1.9854392   1.9776094   1.9484038
           19          20          21          22          23          24
    1   1.5386665   1.5256008   1.4588735   1.4469910   0.0618228   0.0085101
           25          26          27          28          29          30
    1   0.0074316   0.0051701   0.0040658   0.0040597   0.0038712   0.0029452
           31          32          33          34          35          36
    1   0.0024604   0.0023543   0.0021757   0.0021738   0.0014899   0.0012591
           37          38          39          40          41          42
    1   0.0011824   0.0011347   0.0010677   0.0006538   0.0006538   0.0004789
           43          44          45          46          47          48
    1   0.0004387   0.0004386   0.0003220   0.0003189   0.0003137   0.0002480
           49          50          51          52          53          54
    1   0.0001624   0.0001475   0.0001439   0.0001124   0.0001079   0.0000697
           55          56          57          58          59          60
    1   0.0000679   0.0000642   0.0000631   0.0000575   0.0000544   0.0000542
           61          62          63          64          65          66
    1   0.0000516   0.0000511   0.0000418   0.0000371   0.0000366   0.0000194
           67          68
    1   0.0000129   0.0000128

  Amplitudes : 
  
 | HOLE  | ALPHA     | BETA      | PART  |    AMPLITUDE 
--------------------------------------------------
 |       | 111111100 | 111011000 |       |     6.0519972371004E-01
 |       | 111111100 | 111010010 |       |    -1.3798091595003E-01
 |       | 111111100 | 110101100 |       |     6.5115790626540E-01
 |       | 111111100 | 110100110 |       |     1.4970046972645E-01
 |       | 111110110 | 111011000 |       |     1.4432300355227E-01
 |       | 111110110 | 110101100 |       |     1.5698774366348E-01
--------------------------------------------------
*** Contributions RASCI wfn    Active:  90.02
                                 Hole:   0.00
                                 Part:   9.97

      Mulliken population analysis 
 ---------------------------------------------------
   Atom    Charge (a.u.)   Spin (a.u.)  
 ---------------------------------------------------
   1  N   -0.513449        0.949840 
   2 Br    0.513449        1.050160 
 ---------------------------------------------------
   Sum:   -0.000000        2.000000 
 ---------------------------------------------------
 
  
 NATURAL OCCUPATION NUMBERS (higher than 1.0E-05)
            1           2           3           4           5           6
    1   2.0000000   2.0000000   2.0000000   2.0000000   2.0000000   1.9999999
            7           8           9          10          11          12
    1   1.9999999   1.9999994   1.9999993   1.9999992   1.9999981   1.9999981
           13          14          15          16          17          18
    1   1.9999960   1.9999955   1.9999941   1.9854392   1.9776094   1.9484038
           19          20          21          22          23          24
    1   1.5386665   1.5256008   1.4588735   1.4469910   0.0618228   0.0085101
           25          26          27          28          29          30
    1   0.0074316   0.0051701   0.0040658   0.0040597   0.0038712   0.0029452
           31          32          33          34          35          36
    1   0.0024604   0.0023543   0.0021757   0.0021738   0.0014899   0.0012591
           37          38          39          40          41          42
    1   0.0011824   0.0011347   0.0010677   0.0006538   0.0006538   0.0004789
           43          44          45          46          47          48
    1   0.0004387   0.0004386   0.0003220   0.0003189   0.0003137   0.0002480
           49          50          51          52          53          54
    1   0.0001624   0.0001475   0.0001439   0.0001124   0.0001079   0.0000697
           55          56          57          58          59          60
    1   0.0000679   0.0000642   0.0000631   0.0000575   0.0000544   0.0000542
           61          62          63          64          65          66
    1   0.0000516   0.0000511   0.0000418   0.0000371   0.0000366   0.0000194
           67          68
    1   0.0000129   0.0000128
  
*** Unpaired Electrons
 Yamaguchi Nd:         3.43
 Head-Gordon Nu:       2.24
 Head-Gordon Nu_nl:    2.32
  
**************************************************
 RAS-CI total energy for state   9:  -2626.727758377977
  Excitation energy (eV) =  5.543695553955
  State symmetry: A2    (C2v      )
  <S^2>      :  2.0000
  Dipole Moment:   -0.0000 X     0.0000 Y    -1.0636 Z
  Trans. Moment:   -0.0000 X     0.0000 Y    -0.6050 Z
  Strength   :  0.049707
  Natural transition orbitals ( 1 -> 9 ):
   e-/hole pair  1 alpha:  ampl =  0.242967 (  5.9%)   [9 : 10]
   e-/hole pair  2 alpha:  ampl =  0.072428 (  0.5%)   [8 : 11]
   e-/hole pair  1 beta :  ampl =  0.639936 ( 41.0%)   [9 : 10]
   e-/hole pair  2 beta :  ampl =  0.583288 ( 34.0%)   [8 : 11]
   Sum of square amplitudes: 0.85

 NATURAL OCCUPATION NUMBERS (higher than 1.0E-05)
            1           2           3           4           5           6
    1   2.0000000   2.0000000   2.0000000   2.0000000   2.0000000   1.9999999
            7           8           9          10          11          12
    1   1.9999997   1.9999994   1.9999994   1.9999993   1.9999987   1.9999986
           13          14          15          16          17          18
    1   1.9999966   1.9999961   1.9999925   1.9854430   1.9742458   1.8624601
           19          20          21          22          23          24
    1   1.6081931   1.5569616   1.4183383   1.3688111   0.1532387   0.0147737
           25          26          27          28          29          30
    1   0.0137772   0.0061264   0.0042090   0.0034669   0.0034576   0.0033248
           31          32          33          34          35          36
    1   0.0031149   0.0030332   0.0022302   0.0022222   0.0018339   0.0016707
           37          38          39          40          41          42
    1   0.0016252   0.0013726   0.0012455   0.0005685   0.0003900   0.0003790
           43          44          45          46          47          48
    1   0.0003564   0.0003564   0.0003500   0.0003230   0.0002983   0.0002983
           49          50          51          52          53          54
    1   0.0001966   0.0001442   0.0001412   0.0001021   0.0000994   0.0000881
           55          56          57          58          59          60
    1   0.0000858   0.0000803   0.0000770   0.0000730   0.0000638   0.0000631
           61          62          63          64          65          66
    1   0.0000526   0.0000419   0.0000414   0.0000383   0.0000358   0.0000356
           67          68          69
    1   0.0000150   0.0000142   0.0000137

  Amplitudes : 
  
 | HOLE  | ALPHA     | BETA      | PART  |    AMPLITUDE 
--------------------------------------------------
 |       | 111111100 | 111100010 |       |    -1.5097588410305E-01
 |       | 111111100 | 111001100 |       |    -5.4984037474010E-01
 |       | 111111100 | 111000110 |       |    -1.5047518387515E-01
 |       | 111111100 | 110111000 |       |     6.0685366850513E-01
 |       | 111111100 | 110011100 |       |    -2.4291320793744E-01
 |       | 111110110 | 111101000 |       |     2.2015856224222E-01
 |       | 111110110 | 111001100 |       |    -1.6681807669300E-01
--------------------------------------------------
*** Contributions RASCI wfn    Active:  89.66
                                 Hole:   0.00
                                 Part:  10.33

      Mulliken population analysis 
 ---------------------------------------------------
   Atom    Charge (a.u.)   Spin (a.u.)  
 ---------------------------------------------------
   1  N   -0.413539        1.131175 
   2 Br    0.413539        0.868825 
 ---------------------------------------------------
   Sum:   -0.000000        2.000000 
 ---------------------------------------------------
 
  
 NATURAL OCCUPATION NUMBERS (higher than 1.0E-05)
            1           2           3           4           5           6
    1   2.0000000   2.0000000   2.0000000   2.0000000   2.0000000   1.9999999
            7           8           9          10          11          12
    1   1.9999997   1.9999994   1.9999994   1.9999993   1.9999987   1.9999986
           13          14          15          16          17          18
    1   1.9999966   1.9999961   1.9999925   1.9854430   1.9742458   1.8624601
           19          20          21          22          23          24
    1   1.6081931   1.5569616   1.4183383   1.3688111   0.1532387   0.0147737
           25          26          27          28          29          30
    1   0.0137772   0.0061264   0.0042090   0.0034669   0.0034576   0.0033248
           31          32          33          34          35          36
    1   0.0031149   0.0030332   0.0022302   0.0022222   0.0018339   0.0016707
           37          38          39          40          41          42
    1   0.0016252   0.0013726   0.0012455   0.0005685   0.0003900   0.0003790
           43          44          45          46          47          48
    1   0.0003564   0.0003564   0.0003500   0.0003230   0.0002983   0.0002983
           49          50          51          52          53          54
    1   0.0001966   0.0001442   0.0001412   0.0001021   0.0000994   0.0000881
           55          56          57          58          59          60
    1   0.0000858   0.0000803   0.0000770   0.0000730   0.0000638   0.0000631
           61          62          63          64          65          66
    1   0.0000526   0.0000419   0.0000414   0.0000383   0.0000358   0.0000356
           67          68          69
    1   0.0000150   0.0000142   0.0000137
  
*** Unpaired Electrons
 Yamaguchi Nd:         3.77
 Head-Gordon Nu:       2.45
 Head-Gordon Nu_nl:    2.45
  
**************************************************
 RAS-CI total energy for state  10:  -2626.699449459971
  Excitation energy (eV) =  6.314020405790
  State symmetry: B1    (C2v      )
  <S^2>      :  6.0000
  Dipole Moment:   -0.0000 X    -0.0000 Y    -0.3421 Z
  Trans. Moment:    0.0000 X    -0.0000 Y     0.0000 Z
  Strength   :  0.000000
  Natural transition orbitals ( 1 -> 10 ):
   e-/hole pair  1 alpha:  ampl =  0.477842 ( 22.8%)   [9 : 10]
   e-/hole pair  2 alpha:  ampl =  0.032999 (  0.1%)   [8 : 11]
   e-/hole pair  1 beta :  ampl =  0.477830 ( 22.8%)   [9 : 10]
   e-/hole pair  2 beta :  ampl =  0.033003 (  0.1%)   [8 : 11]
   Sum of square amplitudes: 0.46

 NATURAL OCCUPATION NUMBERS (higher than 1.0E-05)
            1           2           3           4           5           6
    1   2.0000000   2.0000000   2.0000000   2.0000000   2.0000000   2.0000000
            7           8           9          10          11          12
    1   1.9999999   1.9999999   1.9999999   1.9999997   1.9999993   1.9999993
           13          14          15          16          17          18
    1   1.9999986   1.9999964   1.9999947   1.9860290   1.9809182   1.9789114
           19          20          21          22          23          24
    1   1.9733974   1.0070484   1.0068764   1.0030267   1.0002044   0.0100789
           25          26          27          28          29          30
    1   0.0064775   0.0061720   0.0056651   0.0049417   0.0047516   0.0037521
           31          32          33          34          35          36
    1   0.0029685   0.0029552   0.0024898   0.0024339   0.0018218   0.0016649
           37          38          39          40          41          42
    1   0.0013063   0.0009687   0.0009095   0.0005420   0.0005059   0.0004204
           43          44          45          46          47          48
    1   0.0004022   0.0003775   0.0003361   0.0002828   0.0002044   0.0001897
           49          50          51          52          53          54
    1   0.0001651   0.0000909   0.0000717   0.0000696   0.0000635   0.0000607
           55          56          57          58          59          60
    1   0.0000549   0.0000521   0.0000458   0.0000454   0.0000438   0.0000361
           61          62          63          64          65          66
    1   0.0000353   0.0000326   0.0000285   0.0000230   0.0000128   0.0000105

  Amplitudes : 
  
 | HOLE  | ALPHA     | BETA      | PART  |    AMPLITUDE 
--------------------------------------------------
 |       | 111111100 | 111001010 |       |     4.2606890974186E-01
 |       | 111111100 | 110011010 |       |     1.6633326666104E-01
 |       | 111111010 | 111001100 |       |    -4.2606084883110E-01
 |       | 111111010 | 110011100 |       |    -1.6634585081686E-01
 |       | 111101110 | 111011000 |       |     4.2606850738089E-01
 |       | 111011110 | 111101000 |       |    -4.2605898464822E-01
 |       | 111011110 | 110111000 |       |     1.6639951009099E-01
 |       | 110111110 | 111011000 |       |    -1.6641127032021E-01
--------------------------------------------------
*** Contributions RASCI wfn    Active:  90.83
                                 Hole:   0.00
                                 Part:   9.16

      Mulliken population analysis 
 ---------------------------------------------------
   Atom    Charge (a.u.)   Spin (a.u.)  
 ---------------------------------------------------
   1  N   -0.157604        1.150419 
   2 Br    0.157604        0.849581 
 ---------------------------------------------------
   Sum:   -0.000000        2.000000 
 ---------------------------------------------------
 
  
 NATURAL OCCUPATION NUMBERS (higher than 1.0E-05)
            1           2           3           4           5           6
    1   2.0000000   2.0000000   2.0000000   2.0000000   2.0000000   2.0000000
            7           8           9          10          11          12
    1   1.9999999   1.9999999   1.9999999   1.9999997   1.9999993   1.9999993
           13          14          15          16          17          18
    1   1.9999986   1.9999964   1.9999947   1.9860290   1.9809182   1.9789114
           19          20          21          22          23          24
    1   1.9733974   1.0070484   1.0068764   1.0030267   1.0002044   0.0100789
           25          26          27          28          29          30
    1   0.0064775   0.0061720   0.0056651   0.0049417   0.0047516   0.0037521
           31          32          33          34          35          36
    1   0.0029685   0.0029552   0.0024898   0.0024339   0.0018218   0.0016649
           37          38          39          40          41          42
    1   0.0013063   0.0009687   0.0009095   0.0005420   0.0005059   0.0004204
           43          44          45          46          47          48
    1   0.0004022   0.0003775   0.0003361   0.0002828   0.0002044   0.0001897
           49          50          51          52          53          54
    1   0.0001651   0.0000909   0.0000717   0.0000696   0.0000635   0.0000607
           55          56          57          58          59          60
    1   0.0000549   0.0000521   0.0000458   0.0000454   0.0000438   0.0000361
           61          62          63          64          65          66
    1   0.0000353   0.0000326   0.0000285   0.0000230   0.0000128   0.0000105
  
*** Unpaired Electrons
 Yamaguchi Nd:         4.29
 Head-Gordon Nu:       4.13
 Head-Gordon Nu_nl:    4.01
  
**************************************************
 RAS-CI total energy for state  11:  -2626.646779081376
  Excitation energy (eV) =  7.747254328036
  State symmetry: B1    (C2v      )
  <S^2>      :  2.0000
  Dipole Moment:   -0.0000 X     0.0000 Y    -0.3011 Z
  Trans. Moment:   -0.0000 X     0.0818 Y    -0.0000 Z
  Strength   :  0.001269
  Natural transition orbitals ( 1 -> 11 ):
   e-/hole pair  1 alpha:  ampl =  0.569028 ( 32.4%)   [9 : 10]
   e-/hole pair  2 alpha:  ampl =  0.045860 (  0.2%)   [8 : 11]
   e-/hole pair  1 beta :  ampl =  0.076337 (  0.6%)   [9 : 10]
   e-/hole pair  2 beta :  ampl =  0.018728 (  0.0%)   [8 : 11]
   Sum of square amplitudes: 0.33

 NATURAL OCCUPATION NUMBERS (higher than 1.0E-05)
            1           2           3           4           5           6
    1   2.0000000   2.0000000   2.0000000   2.0000000   2.0000000   2.0000000
            7           8           9          10          11          12
    1   1.9999999   1.9999994   1.9999994   1.9999990   1.9999984   1.9999982
           13          14          15          16          17          18
    1   1.9999980   1.9999959   1.9999951   1.9850533   1.9753781   1.9645602
           19          20          21          22          23          24
    1   1.7078471   1.3364770   1.2007312   1.0078697   0.7530703   0.0110596
           25          26          27          28          29          30
    1   0.0074458   0.0069244   0.0063157   0.0047438   0.0046405   0.0042985
           31          32          33          34          35          36
    1   0.0033482   0.0032439   0.0024209   0.0021517   0.0018568   0.0016228
           37          38          39          40          41          42
    1   0.0015571   0.0010673   0.0010177   0.0005774   0.0004957   0.0004895
           43          44          45          46          47          48
    1   0.0004673   0.0004186   0.0004032   0.0003594   0.0003562   0.0002431
           49          50          51          52          53          54
    1   0.0001860   0.0001441   0.0001392   0.0001034   0.0000967   0.0000948
           55          56          57          58          59          60
    1   0.0000906   0.0000755   0.0000655   0.0000592   0.0000591   0.0000574
           61          62          63          64          65          66
    1   0.0000517   0.0000497   0.0000492   0.0000470   0.0000418   0.0000328
           67          68          69
    1   0.0000160   0.0000106   0.0000102

  Amplitudes : 
  
 | HOLE  | ALPHA     | BETA      | PART  |    AMPLITUDE 
--------------------------------------------------
 |       | 111111010 | 111101000 |       |    -3.6633983399116E-01
 |       | 111111010 | 111001100 |       |     1.3405613163479E-01
 |       | 111111010 | 110111000 |       |    -3.4647498202066E-01
 |       | 111101110 | 111011000 |       |     5.0213449851289E-01
[...]
    48   -6.913064882797e-08
    49   -1.813711061359e-14
    50   -8.726674938814e-01
    51    2.428868687374e-07
    52    6.113028413287e-14
    53    2.191770871925e-15
    54   -9.190055879688e-02
    55    1.684376190559e-08
    56    3.022314897773e-16
    57    2.957286172889e-16
    58   -3.249754474042e-15
    59    8.439372583290e-02
    60   -1.701914927043e-08
    61   -4.128655570842e-16
    62   -1.008181644769e-16
    63    4.773610763022e-15
    64   -9.448337075783e-02
    65    2.132007575598e-08
    66    2.113992594623e-16
    67   -2.902046425086e-16
    68   -2.303122207431e-14
    69    7.905812200185e-01
    70   -1.692266142933e-07
    71   -1.844887890810e-15
    72   -1.860540227066e-15
    73    9.601389950256e-16
    74   -2.413436602963e-02
    75    8.407214731637e-09
    76    4.888092805738e-16
    77    6.216624915808e-16
    78    1.326448747977e-04
    79   -1.669107103834e-11
Sym=X
Ene= 0.686137
Spin=Alpha
Occup=0
     1    2.924544267484e-02
     2    6.647959068409e-02
     3    2.332157531723e-03
     4   -1.278008752996e+00
     5    1.467420780142e+00
     6    5.532149289242e-16
     7    3.214822877347e-16
     8   -2.384018633809e-01
     9   -1.343754740724e-16
    10    8.939708691594e-16
    11   -6.984922976054e-01
    12   -9.872329837940e-16
    13   -3.100848252362e-15
    14    1.293242520188e+00
    15   -1.498317238455e-02
    16    3.558010215483e-17
    17   -2.045703279179e-17
    18    1.767248944892e-03
    19   -1.059485084289e-16
    20    8.524570254814e-02
    21   -6.799883899373e-16
    22   -2.518835675831e-16
    23   -3.102476603915e-03
    24    5.903442161023e-16
    25    1.864048161743e-02
    26   -4.773282067345e-17
    27   -3.675852448645e-17
    28    1.518535594531e-03
    29    1.364487303217e-16
    30    1.071051218586e-16
    31    3.219039424753e-16
    32   -1.181434882459e-02
    33    5.052349698494e-02
    34   -6.591619402944e-02
    35   -2.537199960357e-01
    36    8.314431146285e-01
    37   -1.435002933797e+00
    38   -4.732401232534e-17
    39   -1.290554519441e-17
    40   -3.207450925896e-02
    41    2.032815472350e-16
    42    4.031440073385e-18
    43    1.089492513221e-01
    44   -7.544930395122e-16
    45    6.831722754979e-16
    46   -1.456434917127e-01
    47    8.594362794030e-16
    48   -2.243404325067e-15
    49    1.156672238121e-01
    50    3.127123600123e-16
    51    3.473944110535e-15
    52    1.854116631775e-01
    53   -9.158610999001e-02
    54   -2.188127445011e-16
    55   -6.784502667754e-18
    56    8.920573522758e-05
    57   -7.572820885815e-17
    58    1.567653555968e-01
    59   -1.109319641418e-16
    60    1.225870136718e-18
    61   -7.925461009526e-05
    62   -3.421375416590e-17
    63   -2.883189056317e-01
    64    1.162488632978e-15
    65    3.591535255164e-16
    66   -6.900035193217e-04
    67    2.830841603296e-16
    68    9.810948284363e-01
    69   -9.720348502067e-16
    70   -1.404534408339e-15
    71    2.363364206626e-03
    72    2.850705089870e-16
    73    7.942270334659e-02
    74   -2.399993120310e-16
    75    1.509696243711e-16
    76    1.286340328925e-03
    77    1.264603740228e-16
    78    9.401944532022e-17
    79    1.102769837296e-16
Sym=X
Ene= 1.060048
Spin=Alpha
Occup=0
     1    2.712129186112e-03
     2    4.099498808033e-03
     3    4.358785105864e-02
     4    1.417967188301e-01
     5   -3.155709612656e+00
     6   -3.072285710151e-17
     7    8.371207831505e-17
     8   -7.234963998414e-02
     9    1.197320021053e-16
    10   -2.207716777004e-16
    11   -5.093738422188e-01
    12    5.567940516521e-16
    13    2.925993861088e-16
    14   -1.426094068358e+00
    15    2.432172227851e-02
    16    7.031584664283e-17
    17   -1.503893967050e-16
    18   -4.597385210033e-04
    19    2.329908606566e-16
    20   -7.715941284538e-02
    21    3.828176339115e-16
    22   -1.837961731872e-15
    23    1.553850436523e-02
    24    6.232508230766e-16
    25   -2.766377377684e-02
    26   -1.014830355401e-16
    27   -8.098924250148e-17
    28    4.002613912975e-04
    29    1.403376851739e-16
    30   -1.496915043289e-16
    31    2.092887446001e-17
    32    2.635326185350e-02
    33   -1.427732260889e-01
    34    1.064886376222e-01
    35    8.679474600646e-01
    36   -3.346892522589e+00
    37    4.840139315906e+00
    38    4.304721222685e-17
    39    3.004819701395e-18
    40   -3.291870129455e-02
    41   -1.602010853390e-16
    42   -4.756071098690e-18
    43    1.130553131469e-01
    44    4.211024774458e-17
    45   -3.762642833307e-16
    46   -1.043320662631e-01
    47    6.414262029503e-16
    48    1.159644872562e-15
    49   -4.679961724217e-01
    50   -1.242341429861e-15
    51   -5.363855182528e-16
    52   -1.795140377149e+00
    53   -7.558075213892e-02
    54   -2.325015448898e-16
    55   -3.509477761189e-16
    56   -9.594919663389e-04
    57   -1.561583245423e-17
    58   -2.999723784444e-03
    59    3.345073575587e-16
    60   -5.246325126425e-16
    61    9.511581926561e-04
    62    3.276499912415e-16
    63    7.850613814164e-02
    64   -2.933565355073e-16
    65    1.835567394049e-15
    66    1.018827099146e-03
    67   -6.916666476061e-16
    68    1.092806063493e+00
    69    1.035898332929e-15
    70   -5.925458490985e-16
    71   -9.269100733732e-04
    72    6.125412304576e-16
    73    2.441596125859e-02
    74    2.919904177932e-16
    75   -2.548209968304e-16
    76    6.144782092358e-04
    77    7.114315306025e-17
    78    9.510912679871e-17
    79    2.380029156898e-16
Sym=X
Ene= 1.209363
Spin=Alpha
Occup=0
     1   -1.434990773811e-03
     2   -4.494782491018e-03
     3    2.643992625754e-02
     4   -5.023335578942e-02
     5    1.711398356491e-01
     6    5.751940020869e-16
     7   -9.172108818024e-16
     8   -3.394702150277e-03
     9    2.747675091516e-16
    10    3.180091602490e-16
    11    1.147490977184e-02
    12   -5.537616570655e-16
    13    1.542571473066e-15
    14    9.212251674957e-02
    15   -1.322514828379e-03
    16    1.044086487472e-16
    17    2.512606691826e-16
    18   -2.035550158100e-02
    19    6.288107142048e-15
    20    4.464057803369e-02
    21   -1.196184600910e-15
    22    4.759303749508e-15
    23    9.608135998099e-01
    24   -2.902352325218e-13
    25    1.461138775772e-03
    26   -1.479311477294e-16
    27    2.079693881380e-16
    28    9.349937235775e-03
    29   -2.941579074217e-15
    30   -1.337904025521e-17
    31   -4.387833851426e-17
    32   -4.921966331056e-04
    33    2.878642709688e-03
    34   -1.711585492240e-03
    35   -1.881542979920e-02
    36    9.258112654159e-02
    37   -1.979280018074e-01
    38    3.659468672941e-17
    39    4.277167027932e-17
    40    1.502127854518e-03
    41   -1.334462798299e-16
    42   -1.984043268701e-16
    43   -4.791908356448e-03
    44   -8.348023700166e-17
    45    1.525458039750e-15
    46   -7.549276077846e-03
    47    9.832706684067e-16
    48   -3.223986216937e-15
    49    7.106576859409e-02
    50   -7.319712620764e-16
    51    5.083656652575e-16
    52    5.822595832772e-02
    53   -3.573461634731e-03
    54   -4.637153018615e-16
    55    3.353199228119e-16
    56    4.228159058983e-02
    57   -1.294817240097e-14
    58   -1.823524956945e-03
    59    3.003678009223e-16
    60    5.998493252974e-16
    61    1.098812537181e-02
    62   -3.552678329826e-15
    63    1.690151356333e-02
    64    8.469191978537e-16
    65   -2.695562591864e-15
    66   -1.148559689825e-01
    67    3.555219610289e-14
    68   -5.715985975212e-02
    69   -4.529777064432e-16
    70    3.409509688974e-15
    71   -1.075996902399e-01
    72    3.209441565924e-14
    73    1.081265717172e-03
    74   -1.301020395334e-15
    75    2.635688647525e-15
    76   -2.162769053174e-01
    77    6.522080305187e-14
    78    9.426271321453e-16
    79    8.287938609360e-16
Sym=X
Ene= 1.211037
Spin=Alpha
Occup=0
     1   -3.977284494957e-16
     2   -1.309261786689e-15
     3    7.130136893191e-15
     4   -1.291785814073e-14
     5    4.308522022304e-14
     6   -2.750080070509e-15
     7    1.008699408569e-15
     8   -1.121155332701e-15
     9    1.953526630938e-15
    10    3.672939787446e-15
    11    3.619279544700e-15
    12    4.852028007255e-15
    13   -9.925120749576e-15
    14    2.160734329547e-14
    15   -3.863975722555e-16
    16   -2.776357314391e-16
    17   -2.200896651944e-16
    18   -6.147844186259e-15
    19   -2.042532954972e-02
    20    9.453478881321e-15
    21    7.736565635063e-15
    22   -6.409102437074e-15
    23    2.900960611683e-13
    24    9.614714168004e-01
    25    3.266199764457e-16
    26    1.392925700505e-16
    27   -4.262878676683e-16
    28    2.800214210379e-15
    29    9.334553116310e-03
    30    4.690503641411e-16
    31   -3.561597187344e-16
    32   -1.432648987405e-16
    33    8.673230061683e-16
    34   -4.510263283411e-16
    35   -5.795794856561e-15
    36    2.570213930388e-14
    37   -5.075748403224e-14
    38   -4.523496128857e-16
    39    2.619941379919e-16
    40    5.261197306582e-16
    41    1.657499540150e-15
    42   -9.811406764778e-16
    43   -1.748142125493e-15
    44   -4.551763715133e-15
    45    2.480635877304e-15
    46   -6.857123663461e-16
    47    4.283011118014e-15
    48   -2.299463027751e-15
    49    1.635577695530e-14
    50   -5.548979848136e-15
    51    5.685468750563e-15
    52    1.540397881477e-14
    53   -4.072161545864e-16
    54    2.890306674373e-15
    55   -3.112896094445e-16
    56    1.299900617943e-14
    57    4.236666027225e-02
    58   -5.803942809093e-16
    59    3.932364246956e-15
    60   -1.065543105767e-15
    61    3.890312612167e-15
    62    1.117237980479e-02
    63    3.455873941125e-15
    64   -1.892900654307e-14
    65    3.954801497150e-15
    66   -3.691362754125e-14
    67   -1.155461474377e-01
    68   -1.438302795049e-14
    69    1.576697017399e-14
    70   -8.194377920063e-15
    71   -3.106736937276e-14
    72   -1.072007843993e-01
    73   -3.181558045613e-16
    74    3.937540922013e-15
    75   -5.653135871242e-15
    76   -6.527966690295e-14
    77   -2.167323960130e-01
    78   -1.737542587115e-15
    79   -3.120071138513e-15
Sym=X
Ene= 1.281768
Spin=Alpha
Occup=0
     1   -3.605194726947e-17
     2   -1.144076326038e-16
     3    3.801550533081e-16
     4   -3.193097232559e-16
     5    1.975463545860e-15
     6   -8.700760028317e-09
     7   -1.021059100537e-01
     8    7.941101073588e-16
     9   -1.877567637212e-10
    10   -1.260038618925e-02
    11   -1.719911627325e-16
    12    4.931193250796e-08
    13    4.929458290466e-01
    14    2.832407166371e-15
    15   -1.633731805924e-16
    16   -1.883990416997e-10
    17   -3.534788089278e-03
    18    2.547331543342e-16
    19   -1.512595003169e-17
    20    5.561541686022e-15
    21    8.510378210231e-08
    22    8.858135029320e-01
    23   -5.674292698817e-15
    24    9.437946484735e-15
    25   -2.420273280752e-17
    26    1.486664520993e-09
    27    1.591207891434e-02
    28    7.369951145872e-17
    29   -1.142459656948e-16
    30    4.145246920475e-11
    31    5.151410949933e-04
    32    2.363681436848e-17
    33   -1.563950419509e-16
    34   -2.138257660359e-16
    35    1.071576014848e-15
    36   -1.869865218509e-15
    37   -1.835787206378e-15
    38   -2.007975667667e-09
    39   -2.045075715621e-02
    40    2.486397636384e-18
    41    7.071145614102e-09
    42    7.128449902405e-02
    43    6.834559464444e-17
    44   -1.527270546775e-08
    45   -1.068090691294e-01
    46   -1.298143348694e-15
    47    1.901470412997e-08
    48   -7.018147807425e-02
    49    6.096583091931e-15
    50   -7.250247546960e-08
    51   -2.779924665643e-01
    52   -2.591790583352e-15
    53   -5.083188368573e-16
    54    7.884550823185e-09
    55    5.573037757721e-02
    56   -2.824944969683e-16
    57    1.694732026463e-15
    58   -3.807460053196e-16
    59    1.290889881618e-08
    60    1.510929394916e-01
    61    4.631446996671e-17
    62    9.856118062302e-16
    63    1.633483412841e-15
    64   -5.614880026426e-08
    65   -5.905722456910e-01
    66    6.863755428996e-16
    67   -7.637314661530e-15
    68   -6.970404506250e-16
    69    7.079722541315e-08
    70    8.808093837100e-01
    71    1.665121962247e-16
    72    3.281882212110e-15
    73    1.097764425725e-15
    74    3.340608056411e-08
    75    3.417150515029e-01
    76    2.712187647332e-15
    77   -3.105050378243e-16
    78    8.026971684748e-11
    79    8.642097743023e-04
Sym=X
Ene= 1.307119
Spin=Alpha
Occup=0
     1    7.708894332081e-17
     2    1.561608357443e-16
     3   -2.144952880631e-15
     4    1.690442321492e-15
     5    5.165041332608e-14
     6   -1.126033531911e-01
     7    1.313860242238e-08
     8   -1.231572162435e-15
     9   -2.229313555230e-02
    10    1.227631884900e-08
    11    7.654837750528e-15
    12    4.899944574227e-01
    13   -5.013031035662e-08
    14    3.412583244816e-14
    15   -3.744435114253e-16
    16   -3.246867980972e-03
    17    5.800152673696e-10
    18    1.658519105677e-16
    19    1.668981529272e-16
    20    2.131717963049e-14
    21    8.756596496929e-01
    22   -8.543318503214e-08
    23    1.625693138222e-15
    24   -1.134821917487e-14
    25    7.015789932419e-16
    26    1.587654506604e-02
    27   -1.403324581270e-09
    28    1.599515532178e-16
    29    3.563214598683e-16
    30    5.833325364331e-04
    31    1.067509634237e-10
    32   -1.484722827660e-16
    33    8.002590178047e-16
    34   -5.113588536501e-16
    35   -5.245022103828e-15
    36    3.094323314320e-14
    37   -7.189421890722e-14
    38   -1.972247583502e-02
    39    1.657169841805e-09
    40   -2.831766450570e-16
    41    6.897072895417e-02
    42   -5.806554555092e-09
    43    1.270274378948e-15
    44   -1.070111183790e-01
    45    8.918346987312e-09
    46   -1.144141218905e-14
    47   -5.979565912761e-02
    48    5.615931481993e-09
    49    3.819287268662e-14
    50   -2.777997645261e-01
    51    2.680394267931e-08
    52    1.502821931282e-14
    53   -4.140802847083e-15
    54    5.887069436241e-02
    55   -5.260844479310e-09
    56   -3.601343321632e-16
    57   -2.087178462429e-15
    58   -1.759163584171e-15
    59    1.544321796707e-01
    60   -1.419364367572e-08
    61   -3.168831534921e-16
    62   -9.225516232458e-16
    63    1.702031866539e-14
    64   -6.092530351201e-01
    65    5.610386465512e-08
    66    2.331946252020e-15
    67    8.335776196590e-15
    68   -2.798018561598e-14
    69    8.869029677656e-01
    70   -8.396493190289e-08
    71   -2.033523479722e-15
    72   -2.694401876582e-15
    73    1.078249166789e-15
    74    3.478326263489e-01
    75   -3.220326244172e-08
    76    8.346557866324e-17
    77    2.771739006845e-15
    78    8.697139358099e-04
    79   -8.938778262678e-11
Sym=X
Ene= 1.395842
Spin=Alpha
Occup=0
     1   -9.396413014202e-03
     2   -2.644388455986e-02
     3    1.616095900643e-01
     4   -1.247024290520e-01
     5   -2.491581781110e+00
     6   -9.915252590036e-16
     7    7.488918755949e-16
     8    5.550670393041e-02
     9   -1.818047507863e-15
    10   -9.906788790192e-16
    11   -3.500403634784e-01
    12    6.303537541336e-15
    13    1.483107847975e-15
    14   -1.547451149597e+00
    15   -3.582094719963e-04
    16    1.923795628188e-17
    17    1.504630989680e-16
    18   -1.535129172575e-03
    19   -9.955717065265e-17
    20   -9.251439202951e-01
    21    2.197377374410e-14
    22    4.215832523575e-15
    23    2.867797775522e-02
    24   -2.438172569428e-15
    25   -3.099848309155e-02
    26   -1.974979538731e-16
    27   -1.092611889258e-16
    28   -5.728221130995e-04
    29    2.474668501363e-16
    30    3.653042000633e-16
    31   -3.183296408757e-16
    32    3.724203984962e-03
    33   -2.725357112296e-02
    34    5.556017833951e-03
    35    2.037187712366e-01
    36   -1.283287342049e+00
    37    3.217382714949e+00
    38   -7.702558111246e-16
    39    2.960403375943e-16
    40    1.062342263862e-02
    41    2.772815917137e-15
    42   -1.112917638753e-15
    43   -4.655922887970e-02
    44   -5.635248599142e-15
    45    3.893079024736e-15
    46    4.719576998801e-01
    47    6.993122480023e-16
    48   -4.687320581942e-15
    49   -1.616634480815e+00
    50   -4.174569892412e-15
    51    6.698063409634e-16
    52   -8.428167969032e-01
    53    2.209220845816e-01
    54   -2.494690598453e-15
    55   -4.821351076370e-16
    56    5.225470100306e-03
    57   -1.248810674431e-15
    58    1.478954642340e-01
    59   -2.362372877288e-15
    60   -8.891370437505e-16
    61    6.837513481585e-03
    62   -6.787551013975e-16
    63   -1.053049942767e+00
    64    1.256244176118e-14
    65    3.056669935357e-15
    66   -3.127349515638e-02
    67    5.807436903169e-15
    68    1.538005935000e+00
    69    3.224899426774e-15
    70    1.372180268557e-15
    71    1.431163184230e-02
    72   -2.800541457477e-15
    73   -4.737581420862e-03
    74    9.166278108297e-15
    75    1.945410984500e-15
    76   -8.015754013003e-03
    77    1.351363295926e-15
    78    6.126488273446e-16
    79    6.826153363933e-16
Sym=X
Ene= 1.548444
Spin=Alpha
Occup=0
     1   -8.179961978618e-16
     2   -2.125439006584e-15
     3    1.274089053952e-14
     4   -1.074385498743e-14
     5   -8.395176602057e-14
     6   -4.337731569963e-15
     7    8.837910588811e-16
     8    1.862373697162e-16
     9    8.255383175178e-15
    10   -1.502323191952e-15
    11   -1.134465536617e-14
    12    4.286988428869e-15
    13   -1.979010522605e-15
    14   -5.660225925236e-14
    15    4.632615511480e-16
    16   -1.812693203580e-16
    17   -5.338873285145e-17
    18   -5.670437956111e-15
    19   -2.307915795552e-03
    20   -3.469093407842e-14
    21   -1.848239775054e-14
    22    9.018716543329e-15
    23    2.430728431005e-13
    24    9.930601315926e-02
    25   -9.894463770508e-16
    26    1.726703920623e-15
    27   -8.403181460088e-16
    28    3.507367746371e-14
    29    1.422166545418e-02
    30    2.349009731916e-16
    31   -1.319851791260e-16
    32   -3.419204846818e-16
    33    2.025879580682e-16
    34   -3.722116284535e-15
    35    2.805108224630e-15
    36   -2.481103478650e-14
    37    9.908975768731e-14
    38    7.433977024893e-16
    39   -7.105178309563e-16
    40   -1.739458021759e-16
    41   -2.652652984915e-15
    42    2.614559059993e-15
    43    3.458576091401e-16
    44    6.154577699970e-15
    45   -7.190128424742e-15
    46    1.177353397580e-14
    47   -1.647670910092e-15
    48    5.699291125053e-15
    49   -5.519864209007e-14
    50   -1.936638508218e-15
    51   -1.601884041900e-15
    52   -2.814660612712e-14
    53    7.047686310041e-15
    54    1.218263056884e-14
    55   -3.348461621577e-15
    56   -6.756210243442e-13
    57   -2.756748677465e-01
    58    3.821905303632e-15
    59    1.415086875825e-14
    60   -5.325212427589e-15
    61   -9.239325853132e-13
    62   -3.767555665244e-01
    63   -3.148808963253e-14
    64   -7.464249087633e-14
    65    2.337389323699e-14
    66    4.338774198774e-12
    67    1.769907741616e+00
    68    5.152938575280e-14
    69    4.505833413353e-14
    70   -1.317645425712e-14
    71   -2.651035985812e-12
    72   -1.081509537795e+00
    73   -2.152643931822e-15
    74   -4.623845037285e-15
    75    2.184772993936e-15
    76   -3.025817546412e-13
    77   -1.232058741258e-01
    78    1.080126098695e-14
    79   -2.773279664595e-15
[5D7F]

======= END OF MOLDEN-FORMATTED INPUT FILE =======


        *************************************************************
        *                                                           *
        *  Thank you very much for using Q-Chem.  Have a nice day.  *
        *                                                           *
        *************************************************************


