                  Welcome to Q-Chem
     A Quantum Leap Into The Future Of Chemistry


 Q-Chem 6.0 (devel), Q-Chem, Inc., Pleasanton, CA (2022)

 E. Epifanovsky,  A. T. B. Gilbert,  Xintian Feng,  Joonho Lee,  Yuezhi Mao,  
 N. Mardirossian,  P. Pokhilko,  A. White,  M. Wormit,  M. P. Coons,  
 A. L. Dempwolff,  Zhengting Gan,  D. Hait,  P. R. Horn,  L. D. Jacobson,  
 I. Kaliman,  J. Kussmann,  A. W. Lange,  Ka Un Lao,  D. S. Levine,  Jie Liu,  
 S. C. McKenzie,  A. F. Morrison,  K. Nanda,  F. Plasser,  D. R. Rehn,  
 M. L. Vidal,  Zhi-Qiang You,  Ying Zhu,  B. Alam,  B. Albrecht,  
 A. Aldossary,  E. Alguire,  J. H. Andersen,  V. Athavale,  D. Barton,  
 K. Begam,  A. Behn,  N. Bellonzi,  Y. A. Bernard,  E. J. Berquist,  
 H. Burton,  A. Carreras,  K. Carter-Fenk,  Romit Chakraborty,  
 Chandrima Chakravarty,  Junhan Chen,  A. D. Chien,  K. D. Closser,  
 V. Cofer-Shabica,  L. Cunha,  S. Dasgupta,  Jia Deng,  M. de Wergifosse,  
 M. Diedenhofen,  Hainam Do,  S. Ehlert,  Po-Tung Fang,  S. Fatehi,  
 Qingguo Feng,  T. Friedhoff,  B. Ganoe,  J. Gayvert,  Qinghui Ge,  
 G. Gidofalvi,  M. Goldey,  J. Gomes,  C. Gonzalez-Espinoza,  S. Gulania,  
 A. Gunina,  J. A. Gyamfi,  M. W. D. Hanson-Heine,  P. H. P. Harbach,  
 A. W. Hauser,  M. F. Herbst,  M. Hernandez Vera,  M. Hodecker,  
 Z. C. Holden,  S. Houck,  Xunkun Huang,  Kerwin Hui,  B. C. Huynh,  
 K. Ikeda,  M. Ivanov,  Hyunjun Ji,  Zuxin Jin,  Hanjie Jiang,  B. Kaduk,  
 S. Kaehler,  R. Kang,  K. Khistyaev,  Jaehoon Kim,  Yongbin Kim,  
 P. Klunzinger,  Z. Koczor-Benda,  Joong Hoon Koh,  D. Kosenkov,  
 Saikiran Kotaru,  L. Koulias,  T. Kowalczyk,  C. M. Krauter,  K. Kue,  
 A. Kunitsa,  T. Kus,  A. Landau,  K. V. Lawler,  D. Lefrancois,  S. Lehtola,  
 Rain Li,  Shaozhi Li,  Yi-Pei Li,  Jiashu Liang,  M. Liebenthal,  
 Hung-Hsuan Lin,  You-Sheng Lin,  Fenglai Liu,  Kuan-Yu Liu,  
 M. Loipersberger,  A. Luenser,  C. Malbon,  A. Manjanath,  P. Manohar,  
 E. Mansoor,  S. F. Manzer,  Shan-Ping Mao,  A. V. Marenich,  T. Markovich,  
 S. Mason,  F. Matz,  S. A. Maurer,  P. F. McLaughlin,  M. F. S. J. Menger,  
 J.-M. Mewes,  S. A. Mewes,  P. Morgante,  Mohammad Mostafanejad,  
 J. W. Mullinax,  K. J. Oosterbaan,  G. Paran,  V. Parravicini,  
 Alexander C. Paul,  Suranjan K. Paul,  F. Pavosevic,  Zheng Pei,  S. Prager,  
 E. I. Proynov,  E. Ramos,  B. Rana,  A. E. Rask,  A. Rettig,  R. M. Richard,  
 F. Rob,  E. Rossomme,  T. Scheele,  M. Scheurer,  M. Schneider,  
 P. E. Schneider,  N. Sergueev,  S. M. Sharada,  Hengyuan Shen,  
 W. Skomorowski,  D. W. Small,  C. J. Stein,  Yingli Su,  Yu-Chuan Su,  
 E. J. Sundstrom,  Zhen Tao,  J. Thirman,  Hung-Yi Tsai,  T. Tsuchimochi,  
 N. M. Tubman,  C. Utku,  S. P. Veccham,  O. Vydrov,  J. Wenzel,  
 Jonathan Wong,  J. Witte,  A. Yamada,  Chou-Hsun Yang,  Kun Yao,  
 S. Yeganeh,  S. R. Yost,  A. Zech,  F. Zeller,  Igor Ying Zhang,  
 Xing Zhang,  Yu Zhang,  D. Zuev,  A. Aspuru-Guzik,  A. T. Bell,  
 N. A. Besley,  K. B. Bravaya,  B. R. Brooks,  D. Casanova,  Jeng-Da Chai,  
 Hsing-Ta Chen,  S. Coriani,  C. J. Cramer,  A. E. DePrince, III,  
 R. A. DiStasio Jr.,  A. Dreuw,  B. D. Dunietz,  T. R. Furlani,  
 W. A. Goddard III,  S. Grimme,  S. Hammes-Schiffer,  T. Head-Gordon,  
 W. J. Hehre,  Chao-Ping Hsu,  T.-C. Jagau,  Yousung Jung,  A. Klamt,  
 Jing Kong,  D. S. Lambrecht,  Xiangyuan Li,  WanZhen Liang,  N. J. Mayhall,  
 C. W. McCurdy,  J. B. Neaton,  T. Neudecker,  C. Ochsenfeld,  
 J. A. Parkhill,  R. Peverati,  V. A. Rassolov,  Haisheng Ren,  Yihan Shao,  
 L. V. Slipchenko,  R. P. Steele,  J. E. Subotnik,  A. J. W. Thom,  
 A. Tkatchenko,  D. G. Truhlar,  T. Van Voorhis,  Fan Wang,  
 T. A. Wesolowski,  K. B. Whaley,  H. L. Woodcock III,  P. M. Zimmerman,  
 S. Faraji,  P. M. W. Gill,  M. Head-Gordon,  J. M. Herbert,  A. I. Krylov

 Contributors to earlier versions of Q-Chem not listed above: 
 R. D. Adamson,  B. Austin,  R. Baer,  J. Baker,  G. J. O. Beran,  
 K. Brandhorst,  S. T. Brown,  E. F. C. Byrd,  Arup K. Chakraborty,  
 G. K. L. Chan,  Chun-Min Chang,  Yunqing Chen,  C.-L. Cheng,  
 Siu Hung Chien,  D. M. Chipman,  D. L. Crittenden,  H. Dachsel,  
 R. J. Doerksen,  A. D. Dutoi,  R. G. Edgar,  J. Fosso-Tande,  
 L. Fusti-Molnar,  D. Ghosh,  A. Ghysels,  A. Golubeva-Zadorozhnaya,  
 J. Gonthier,  M. S. Gordon,  S. R. Gwaltney,  G. Hawkins,  J. E. Herr,  
 A. Heyden,  S. Hirata,  E. G. Hohenstein,  G. Kedziora,  F. J. Keil,  
 C. Kelley,  Jihan Kim,  R. A. King,  R. Z. Khaliullin,  P. P. Korambath,  
 W. Kurlancheek,  A. Laurent,  A. M. Lee,  M. S. Lee,  S. V. Levchenko,  
 Ching Yeh Lin,  D. Liotard,  E. Livshits,  R. C. Lochan,  I. Lotan,  
 L. A. Martinez-Martinez,  P. E. Maslen,  N. Nair,  D. P. O'Neill,  
 D. Neuhauser,  E. Neuscamman,  C. M. Oana,  R. Olivares-Amaya,  R. Olson,  
 T. M. Perrine,  B. Peters,  P. A. Pieniazek,  A. Prociuk,  Y. M. Rhee,  
 J. Ritchie,  M. A. Rohrdanz,  E. Rosta,  N. J. Russ,  H. F. Schaefer III,  
 M. W. Schmidt,  N. E. Schultz,  S. Sharma,  N. Shenvi,  C. D. Sherrill,  
 A. C. Simmonett,  A. Sodt,  T. Stein,  D. Stuck,  K. S. Thanthiriwatte,  
 V. Vanovschi,  L. Vogt,  Tao Wang,  A. Warshel,  M. A. Watson,  
 C. F. Williams,  Q. Wu,  X. Xu,  Jun Yang,  W. Zhang,  Yan Zhao

   Please cite Q-Chem as follows:
  "Software for the frontiers of quantum chemistry:
   An overview of developments in the Q-Chem 5 package"
   J. Chem. Phys. 155, 084801 (2021)
   https://doi.org/10.1063/5.0055522 (open access)

 Q-Chem 6.0.1 for Intel X86 EM64T Linux

 Parts of Q-Chem use Armadillo 9.900.5 (Nocturnal Misbehaviour).
 http://arma.sourceforge.net/

 Q-Chem begins on Wed Jun 21 12:07:13 2023  

 Host: atlas-014
0

     Scratch files written to ./qchem10058//
 Processing $rem in /scratch/abel/SOFTWARE/qchem/config/preferences:
 Processing $rem in /dipc/acebg/.qchemrc:

 Checking the input file for inconsistencies... 	...done.

--------------------------------------------------------------
User input:
--------------------------------------------------------------
$comment
 RAS-SF CALCULATION
$end

$molecule
 READ s2.molecule
$end

$rem
!**CALCULATION TYPE***     
JOBTYPE            sp    
EXCHANGE           HF
CORRELATION        RASCI    !RASCI=Casanova; RASCI2=Zimmerman
BASIS              def2-TZVP

!***SCF REFERENCE***
!SKIP_SCFMAN        FALSE
UNRESTRICTED       FALSE
!SCF_GUESS          core
!SCF_GUESS_MIX      FALSE
!SCF_GUESS_ALWAYS   FALSE
MAX_SCF_CYCLES     500
!SCF_CONVERGENCE    8
!SCF_ALGORITHM      DIIS !DIIS,DM,DIIS_DM,GDM,DIIS_GDM,GD

!SYMMETRY           TRUE !use of symmetry for calculating integrals
!SYM_IGNORE         FALSE !turn off using symmetry
!SYM_TOL            5 !tolerance for determining point group

!THRESH             14
SCF_FINAL_PRINT     1 !0,1,2,3

!****RAS-SF****
RAS_ROOTS          20       !number of RAS-CI roots to be computed
SET_ITER           150      !number of iterations in RASCI
RAS_ELEC           10       !number of electrons in RAS2
RAS_ELEC_ALPHA     6       !spin-α electrons in RAS2 
RAS_ELEC_BETA      4       !spin-β electrons in RAS2

RAS_ACT            9       !number of orbitals in RAS2 
RAS_ACT_ORB   [12,13,14,15,16,17,18,19,20]  !user-selected RAS2 orbitals
RAS_OCC            11       !number of orbitals in RAS1
!N_FROZEN_CORE      0     !Number of frozen core orbitals
!N_FROZEN_VIRTUAL   0      !Number of frozen virtual orbitals

RAS_DO_HOLE        TRUE   !presence of hole excitations in RAS-CI wave function
RAS_DO_PART        TRUE   !presence of particle excitations
!RAS_AMPL_PRINT     10     !threshold (×10 2 ) for the CI amplitudes

!RAS_GUESS_CS       0      !number of closed shell guess conﬁgurations
!RAS_SPIN_MULT      0      !spin multiplicity: 0=any, 2n+1=defined 
!RAS_SRDFT          FALSE  !short-range density functional RAS-CI
!RAS_NFRAG          0     !fragments of excitation analysis in RASCI

RAS_PRINT          2      !level of information
RAS_NATORB         TRUE   !computation of the natural orbital occupancies
!RAS_NATORB_STATE  0      !Saves NO of i RAS computed state in .fchk ﬁle
!RAS_FOD            TRUE

!****RAS-SOC****
CALC_SOC           TRUE   !calculate SOC for EOM-CC, RAS-CI, ADC, TDDFT/TDA and TDDFT
!RAS_SOC_2E        TRUE   !two-electron mean-ﬁeld contribution, default=true
RAS_SOC_SYM_DENS   TRUE   !averaging of α and β densities

!****MEMORY****
MEM_TOTAL          60000 !Default 2000 MB
MEM_STATIC         16000  !Default 64 MB

!**Molecular Properties and Analysis **                                                                                          
!GUI                2
STATE_ANALYSIS     TRUE
MOLDEN_FORMAT      TRUE
PRINT_ORBITALS     20
$end                                           

--------------------------------------------------------------
 ----------------------------------------------------------------
             Standard Nuclear Orientation (Angstroms)
    I     Atom           X                Y                Z
 ----------------------------------------------------------------
    1      S       0.0000000000     0.0000000000    -0.9446000000
    2      S       0.0000000000     0.0000000000     0.9446000000
 ----------------------------------------------------------------
 Molecular Point Group                 D2h   NOp =  8
 Largest Abelian Subgroup              D2h   NOp =  8
 Nuclear Repulsion Energy =          71.70726549 hartrees
 There are       17 alpha and       15 beta electrons
 Requested basis set is def2-TZVP
 There are 26 shells and 74 basis functions

 Q-Chem warning in module libmdc/get_mega.C, line 167:

 Allowed MEM_STATIC has been capped at MEM_STATIC=8191.
 Reduce the value of MEM_STATIC to silence this warning.


 Total QAlloc Memory Limit  60000 MB
 Mega-Array Size      8007 MB
 MEM_STATIC part      8191 MB


                       Distance Matrix (Angstroms)
             S (  1)
   S (  2)  1.889200
 
 A cutoff of  1.0D-09 yielded    340 shell pairs
 There are      2856 function pairs (      3719 Cartesian)
 Smallest overlap matrix eigenvalue = 2.69E-03

 Scale SEOQF with 1.000000e+00/1.000000e+00/1.000000e-01

 Standard Electronic Orientation quadrupole field applied
 Nucleus-field energy     =    -0.0000000031 hartrees
 Guess from superposition of atomic densities
 Warning:  Energy on first SCF cycle will be non-variational
 SAD guess density has 32.000000 electrons

 -----------------------------------------------------------------------
  General SCF calculation program by
  Eric Jon Sundstrom, Paul Horn, Yuezhi Mao, Dmitri Zuev, Alec White,
  David Stuck, Shaama M.S., Shane Yost, Joonho Lee, David Small,
  Daniel Levine, Susi Lehtola, Hugh Burton, Evgeny Epifanovsky,
  Bang C. Huynh
 -----------------------------------------------------------------------
 Hartree-Fock
 Orthonormalizing orbitals
 A restricted open-shell SCF calculation will be
 performed using GDM
 SCF converges when RMS gradient is below 1.0e-05
 ---------------------------------------
  Cycle       Energy        RMS Gradient
 ---------------------------------------
    1    -793.7053597670      6.51e-01   Descent step
    2    -794.0489509435      4.81e-01   Descent step
Fro norm of D 1.062147501679e+00
transformation scaled by 2
    3    -794.3102139756      9.71e-01   Descent step
    4    -794.7568999113      3.49e-01   Descent step
    5    -794.8643812965      1.45e-01   Dog-leg BFGS step
    6    -794.8902700485      1.03e-01   Dog-leg BFGS step
    7    -794.8773664089      1.33e-01  Line search: overstep
    8    -794.8988999392      1.81e-02   Normal BFGS step
    9    -794.8774942733      1.93e-01  Line search: overstep
   10    -794.8992747024      1.63e-02   Normal BFGS step
   11    -794.8997049912      5.55e-03   Normal BFGS step
   12    -794.8997605471      1.96e-03   Normal BFGS step
   13    -794.8997662397      9.59e-04   Normal BFGS step
   14    -794.8997675387      1.34e-04   Normal BFGS step
   15    -794.8997676178      6.12e-05   Normal BFGS step
   16    -794.8997676288      1.55e-05   Normal BFGS step
   17    -794.8997676462      2.67e-06  Convergence criterion met
The disked orbital energies are calculated using alpha and beta Focks
 ---------------------------------------
 Alpha HF Exchange    Energy = -25.53342409280631
 Beta HF Exchange     Energy = -24.51856594969809
 Nuclear Attraction   Energy =   0.00000000000000
 One-Electron (alpha) Energy = -633.78581269125243
 One-Electron (beta)  Energy = -607.52324567241658
 Total Coulomb        Energy = 424.75401527248960
 Final Alpha MO Eigenvalues
            1           2           3           4           5           6
    1 -92.0231710 -92.0231650  -9.0276342  -9.0272611  -6.7159199  -6.7022585
            7           8           9          10          11          12
    1  -6.7021955  -6.7148414  -6.7123322  -6.7122703  -1.1401493  -0.8698366
           13          14          15          16          17          18
    1  -0.5179851  -0.5435969  -0.3487190  -0.5778586  -0.3755889   0.1083931
           19          20          21          22          23          24
    1   0.2889580   0.3321071   0.3488722   0.3400051   0.4287300   0.4289547
           25          26          27          28          29          30
    1   0.4298801   0.4128493   0.4440191   0.4365941   0.4620112   0.5762490
           31          32          33          34          35          36
    1   0.5772164   0.7762909   0.7967807   0.8021439   0.8235751   1.0931586
           37          38          39          40          41          42
    1   1.5694247   1.5932671   1.6122244   1.6767178   1.6767222   1.7282084
           43          44          45          46          47          48
    1   1.7290183   1.7620998   1.7666575   1.7838197   1.8226527   1.8406273
           49          50          51          52          53          54
    1   1.8533192   1.8533635   1.9469569   1.9577960   1.9578089   1.9675619
           55          56          57          58          59          60
    1   1.9878191   2.0200108   2.0441249   2.0601050   2.0847608   2.1984887
           61          62          63          64          65          66
    1   2.2046015   2.2253605   2.7838603   2.8059071   2.8233822   3.0515673
           67          68          69          70          71          72
    1   9.4398707   9.4569205   9.5105255   9.5278245   9.6714750   9.8629852
           73          74
    1  18.3565000  19.4087380
 Final Beta MO Eigenvalues
            1           2           3           4           5           6
    1 -92.0136737 -92.0136658  -9.0171091  -9.0168781  -6.6921137  -6.6974919
            7           8           9          10          11          12
    1  -6.6974351  -6.6910969  -6.6892686  -6.6891820  -1.0273378  -0.7081313
           13          14          15          16          17          18
    1  -0.4885456  -0.4173812  -0.3109134  -0.1517197   0.0057643   0.1683235
           19          20          21          22          23          24
    1   0.3319181   0.3722869   0.3720470   0.4041743   0.4615343   0.4649815
           25          26          27          28          29          30
    1   0.4648858   0.5043479   0.4513235   0.4736064   0.4976434   0.6287158
           31          32          33          34          35          36
    1   0.6277779   0.8069046   0.8415305   0.8666758   0.8558776   1.1374625
           37          38          39          40          41          42
    1   1.6085151   1.6337183   1.6395743   1.7111322   1.7111350   1.7485666
           43          44          45          46          47          48
    1   1.7486496   1.7870429   1.7857221   1.8083538   1.8513558   1.8573982
           49          50          51          52          53          54
    1   1.8794587   1.8794291   1.9871149   1.9858181   1.9858720   1.9904920
           55          56          57          58          59          60
    1   2.0210261   2.0602098   2.0571996   2.1013207   2.0984408   2.2356247
           61          62          63          64          65          66
    1   2.2347649   2.2543238   2.8182034   2.8259478   2.8563006   3.0777198
           67          68          69          70          71          72
    1   9.4617526   9.4625717   9.5322159   9.5333264   9.6924522   9.8826541
           73          74
    1  18.3713273  19.4234623
 SCF time:   CPU 5.60s  wall 7.00s 
<S^2> =          2.000000000
 SCF   energy in the final basis set =     -794.8997676462
 Total energy in the final basis set =     -794.8997676462

 Q-Chem warning in module 0, line  204:

 Quadrupole field failed to resolve orbital degeneracies.


 Q-Chem warning in module 0, line  204:

 Quadrupole field failed to resolve orbital degeneracies.

  
     ##========================================##
     ||                                        ||
     ||              R A S M A N 2             ||
     ||________________________________________||
     ||                                        ||
     ||  Author:                               ||
     ||                                        ||
     ||        David Casanova (2010)           ||
     ||                                        ||
     ##========================================##
  
Setting single-point xc-functionals (if necessary)

  ***************************************************
  *  RAS-CI Dimensions:                             *
  *                                                 *
  *  Active Elec.:  10 ( 6, 4)   Active Orb.:   9   *
  *  Doubly Occ. :  11           Doubly Vir.:  54   *
  *  Frozen Occ. :   0           Frozen Vir.:   0   *
  *                                                 *
  *  Total CI configurations:   1415232             * 
  *    Active configurations:     10584             * 
  *      Hole configurations:    166320             * 
  *  Particle configurations:   1238328             * 
  *                                                 *
  *   Requested states:       20                    *
  *  Spin multiplicity: Any multiplicity            *
  *                                                 *
  ***************************************************
-----------------------------------------
    Memory requirements of RASCI

 Each CI-vector requires     10.80 MiB 
 Max. subspace vectors           3000      

 Reduced Lists                0.00 MiB 
 Excitation Lists             0.01 MiB 
 Excitation Lists Sign        0.01 MiB 
 CI-space (Max)           32676.72 MiB 
 Integrals                    7.44 MiB 
 Memory required (Max)    32676.74 MiB 
 Memory available          7811.55 MiB 

 Q-Chem warning in module rasman2/ras_mem_check.C, line 162:

 Static memory may be insufficient to store the subspace vectors


    Disk requirements of RASCI

 Fock matrix                  0.08 MiB 
 2-electron integrals         9.06 MiB 
 CI-space                 64784.18 MiB 
 Disk required            64793.33 MiB 
-----------------------------------------
  
RAS1 HF-like energy:           -774.8315673126
 Computing integrals
 Computing J and K matrices
 Computing addressing
 Making amplitude guesses
 
Direct CI diagonalization
 ---------------------------------------------------
 Iter    Rts Conv    Rts Left    Ttl Dev     Max Dev
 ---------------------------------------------------
   1         0          20      0.007689    0.000520
   2         0          20      0.004424    0.000304
   3         0          20      0.003757    0.000304
   4         0          20      0.003046    0.000263
   5         0          20      0.003398    0.000310
   6         0          20      0.002318    0.000227
   7         0          20      0.000979    0.000108
   8         0          20      0.001014    0.000135
   9         0          20      0.001071    0.000145
  10         0          20      0.001195    0.000242
  11         0          20      0.000775    0.000174
  12         0          20      0.000491    0.000139
  13         0          20      0.000617    0.000191
  14         0          20      0.000907    0.000256
  15         0          20      0.001102    0.000322
  16         1          19      0.000946    0.000265
  17         1          19      0.000519    0.000126
  18         2          18      0.000469    0.000122
  19         2          18      0.000525    0.000136
  20         3          17      0.000428    0.000092
  21         7          13      0.000402    0.000176
  22         8          12      0.000316    0.000132
  23         9          11      0.000396    0.000140
  24         8          12      0.000498    0.000205
  25        12           8      0.000354    0.000119
  26        12           8      0.000281    0.000100
  27        12           8      0.000268    0.000102
  28        13           7      0.000312    0.000117
  29        14           6      0.000337    0.000159
  30        15           5      0.000334    0.000183
  31        15           5      0.000244    0.000126
  32        15           5      0.000253    0.000126
  33        15           5      0.000287    0.000145
  34        16           4      0.000286    0.000149
  35        16           4      0.000168    0.000082
  36        16           4      0.000141    0.000050
  37        16           4      0.000175    0.000061
  38        16           4      0.000171    0.000062
  39        16           4      0.000126    0.000044
  40        17           3      0.000094    0.000032
  41        17           3      0.000109    0.000053
  42        16           4      0.000182    0.000117
  43        16           4      0.000220    0.000167
  44        16           4      0.000242    0.000191
  45        17           3      0.000228    0.000144
  46        17           3      0.000255    0.000150
  47        17           3      0.000238    0.000163
  48        17           3      0.000119    0.000083
  49        17           3      0.000084    0.000058
  50        17           3      0.000076    0.000052
  51        17           3      0.000091    0.000066
  52        18           2      0.000059    0.000040
  53        19           1      0.000037    0.000022
  54        19           1      0.000033    0.000018
  55        19           1      0.000036    0.000021
  56        19           1      0.000032    0.000018
  57        19           1      0.000022    0.000010
  58        19           1      0.000019    0.000007
  59        19           1      0.000020    0.000008
  60        19           1      0.000019    0.000007
  61        19           1      0.000016    0.000005
  62        19           1      0.000016    0.000004
  63        19           1      0.000014    0.000003
  64        19           1      0.000013    0.000002
  65        19           1      0.000012    0.000001
  66        19           1      0.000013    0.000002
  67        20           0      0.000012    0.000001    Roots Converged
 ---------------------------------------------------
   
**************************************************
 RAS-CI total energy for state   1:   -795.212565592822
  Excitation energy (eV) =  0.000000000000
  State symmetry: B1g   (D2h      )
  <S^2>      :  2.0000
  Dipole Moment:    0.0000 X     0.0000 Y     0.0000 Z
 NATURAL OCCUPATION NUMBERS (higher than 1.0E-05)
            1           2           3           4           5           6
    1   2.0000000   2.0000000   1.9999998   1.9999997   1.9999991   1.9999989
            7           8           9          10          11          12
    1   1.9999987   1.9999986   1.9999984   1.9999976   1.9980379   1.9722451
           13          14          15          16          17          18
    1   1.9562352   1.9526818   1.9514830   1.0213786   1.0196279   0.0372612
           19          20          21          22          23          24
    1   0.0162572   0.0150760   0.0113162   0.0069092   0.0055203   0.0055060
           25          26          27          28          29          30
    1   0.0040006   0.0039839   0.0038444   0.0032612   0.0029690   0.0028896
           31          32          33          34          35          36
    1   0.0018623   0.0013077   0.0012312   0.0007634   0.0007103   0.0003400
           37          38          39          40          41          42
    1   0.0003128   0.0002685   0.0002667   0.0002648   0.0002593   0.0002147
           43          44          45          46          47          48
    1   0.0002135   0.0001605   0.0001601   0.0001574   0.0001559   0.0001556
           49          50          51          52          53          54
    1   0.0001540   0.0001367   0.0001072   0.0000475   0.0000473   0.0000364
           55          56          57          58          59          60
    1   0.0000315   0.0000232   0.0000204   0.0000203   0.0000193   0.0000190
           61          62
    1   0.0000188   0.0000170
 Created directory ./qchem10058/plots

  Amplitudes : 
  
 | HOLE  | ALPHA     | BETA      | PART  |    AMPLITUDE 
--------------------------------------------------
 |       | 111111000 | 111010000 |       |     9.4580021797873E-01
--------------------------------------------------
*** Contributions RASCI wfn    Active:  92.62
                                 Hole:   0.22
                                 Part:   7.16

      Mulliken population analysis 
 ---------------------------------------------------
   Atom    Charge (a.u.)   Spin (a.u.)  
 ---------------------------------------------------
   1  S    0.000000        1.000000 
   2  S    0.000000        1.000000 
 ---------------------------------------------------
   Sum:    0.000000        2.000000 
 ---------------------------------------------------
 
  
 NATURAL OCCUPATION NUMBERS (higher than 1.0E-05)
            1           2           3           4           5           6
    1   2.0000000   2.0000000   1.9999998   1.9999997   1.9999991   1.9999989
            7           8           9          10          11          12
    1   1.9999987   1.9999986   1.9999984   1.9999976   1.9980379   1.9722451
           13          14          15          16          17          18
    1   1.9562352   1.9526818   1.9514830   1.0213786   1.0196279   0.0372612
           19          20          21          22          23          24
    1   0.0162572   0.0150760   0.0113162   0.0069092   0.0055203   0.0055060
           25          26          27          28          29          30
    1   0.0040006   0.0039839   0.0038444   0.0032612   0.0029690   0.0028896
           31          32          33          34          35          36
    1   0.0018623   0.0013077   0.0012312   0.0007634   0.0007103   0.0003400
           37          38          39          40          41          42
    1   0.0003128   0.0002685   0.0002667   0.0002648   0.0002593   0.0002147
           43          44          45          46          47          48
    1   0.0002135   0.0001605   0.0001601   0.0001574   0.0001559   0.0001556
           49          50          51          52          53          54
    1   0.0001540   0.0001367   0.0001072   0.0000475   0.0000473   0.0000364
           55          56          57          58          59          60
    1   0.0000315   0.0000232   0.0000204   0.0000203   0.0000193   0.0000190
           61          62
    1   0.0000188   0.0000170
  
*** Unpaired Electrons
 Yamaguchi Nd:         2.58
 Head-Gordon Nu:       2.26
 Head-Gordon Nu_nl:    2.03
  
**************************************************
 RAS-CI total energy for state   2:   -795.073943923931
  Excitation energy (eV) =  3.772087528329
  State symmetry: B1u   (D2h      )
  <S^2>      :  2.0000
  Dipole Moment:   -0.0000 X    -0.0000 Y     0.0000 Z
  Trans. Moment:   -0.0000 X    -0.0000 Y    -0.0000 Z
  Strength   :  0.000000
  Natural transition orbitals ( 1 -> 2 ):
   e-/hole pair  1 alpha:  ampl =  0.022610 (  0.1%)   [9 : 10]
   e-/hole pair  2 alpha:  ampl =  0.020432 (  0.0%)   [8 : 11]
   e-/hole pair  1 beta :  ampl =  0.910724 ( 82.9%)   [9 : 10]
   e-/hole pair  2 beta :  ampl =  0.289559 (  8.4%)   [8 : 11]
   Sum of square amplitudes: 0.93

 NATURAL OCCUPATION NUMBERS (higher than 1.0E-05)
            1           2           3           4           5           6
    1   2.0000000   2.0000000   1.9999999   1.9999998   1.9999993   1.9999992
            7           8           9          10          11          12
    1   1.9999991   1.9999989   1.9999987   1.9999984   1.9979165   1.9735617
           13          14          15          16          17          18
    1   1.9618967   1.8895161   1.8835551   1.0922389   1.0885561   0.0334217
           19          20          21          22          23          24
    1   0.0161030   0.0151312   0.0061946   0.0055626   0.0050988   0.0048592
           25          26          27          28          29          30
    1   0.0043141   0.0040951   0.0036071   0.0025383   0.0022659   0.0015168
           31          32          33          34          35          36
    1   0.0011356   0.0009006   0.0006966   0.0005787   0.0005629   0.0004171
           37          38          39          40          41          42
    1   0.0003580   0.0003513   0.0003433   0.0003156   0.0003055   0.0002814
           43          44          45          46          47          48
    1   0.0002592   0.0002496   0.0002188   0.0001921   0.0001714   0.0001591
           49          50          51          52          53          54
    1   0.0001099   0.0001080   0.0000883   0.0000372   0.0000355   0.0000331
           55          56          57          58          59          60
    1   0.0000247   0.0000209   0.0000179   0.0000167   0.0000154   0.0000142
           61          62
    1   0.0000138   0.0000110

  Amplitudes : 
  
 | HOLE  | ALPHA     | BETA      | PART  |    AMPLITUDE 
--------------------------------------------------
 |       | 111111000 | 110110000 |       |     2.9137085011320E-01
 |       | 111111000 | 101011000 |       |     9.1567088658798E-01
--------------------------------------------------
*** Contributions RASCI wfn    Active:  93.84
                                 Hole:   0.23
                                 Part:   5.93

      Mulliken population analysis 
 ---------------------------------------------------
   Atom    Charge (a.u.)   Spin (a.u.)  
 ---------------------------------------------------
   1  S    0.000000        1.000000 
   2  S    0.000000        1.000000 
 ---------------------------------------------------
   Sum:    0.000000        2.000000 
 ---------------------------------------------------
 
  
 NATURAL OCCUPATION NUMBERS (higher than 1.0E-05)
            1           2           3           4           5           6
    1   2.0000000   2.0000000   1.9999999   1.9999998   1.9999993   1.9999992
            7           8           9          10          11          12
    1   1.9999991   1.9999989   1.9999987   1.9999984   1.9979165   1.9735617
           13          14          15          16          17          18
    1   1.9618967   1.8895161   1.8835551   1.0922389   1.0885561   0.0334217
           19          20          21          22          23          24
    1   0.0161030   0.0151312   0.0061946   0.0055626   0.0050988   0.0048592
           25          26          27          28          29          30
    1   0.0043141   0.0040951   0.0036071   0.0025383   0.0022659   0.0015168
           31          32          33          34          35          36
    1   0.0011356   0.0009006   0.0006966   0.0005787   0.0005629   0.0004171
           37          38          39          40          41          42
    1   0.0003580   0.0003513   0.0003433   0.0003156   0.0003055   0.0002814
           43          44          45          46          47          48
    1   0.0002592   0.0002496   0.0002188   0.0001921   0.0001714   0.0001591
           49          50          51          52          53          54
    1   0.0001099   0.0001080   0.0000883   0.0000372   0.0000355   0.0000331
           55          56          57          58          59          60
    1   0.0000247   0.0000209   0.0000179   0.0000167   0.0000154   0.0000142
           61          62
    1   0.0000138   0.0000110
  
*** Unpaired Electrons
 Yamaguchi Nd:         2.77
 Head-Gordon Nu:       2.23
 Head-Gordon Nu_nl:    2.07
  
**************************************************
 RAS-CI total energy for state   3:   -795.072388266501
  Excitation energy (eV) =  3.814419120766
  State symmetry: Au    (D2h      )
  <S^2>      :  2.0000
  Dipole Moment:   -0.0000 X    -0.0000 Y     0.0000 Z
  Trans. Moment:   -0.0000 X    -0.0000 Y    -0.0478 Z
  Strength   :  0.000213
  Natural transition orbitals ( 1 -> 3 ):
   e-/hole pair  1 alpha:  ampl =  0.027902 (  0.1%)   [9 : 10]
   e-/hole pair  2 alpha:  ampl =  0.025457 (  0.1%)   [8 : 11]
   e-/hole pair  1 beta :  ampl =  0.703144 ( 49.4%)   [9 : 10]
   e-/hole pair  2 beta :  ampl =  0.647388 ( 41.9%)   [8 : 11]
   Sum of square amplitudes: 0.93

 NATURAL OCCUPATION NUMBERS (higher than 1.0E-05)
            1           2           3           4           5           6
    1   2.0000000   2.0000000   1.9999999   1.9999998   1.9999992   1.9999992
            7           8           9          10          11          12
    1   1.9999991   1.9999989   1.9999987   1.9999986   1.9976838   1.9737989
           13          14          15          16          17          18
    1   1.9616119   1.5276058   1.5246922   1.4558981   1.4479614   0.0334283
           19          20          21          22          23          24
    1   0.0149466   0.0135212   0.0068619   0.0059590   0.0047557   0.0044104
           25          26          27          28          29          30
    1   0.0040127   0.0035146   0.0033071   0.0032462   0.0023145   0.0015182
           31          32          33          34          35          36
    1   0.0014050   0.0008901   0.0006802   0.0006424   0.0005813   0.0004620
           37          38          39          40          41          42
    1   0.0004423   0.0004243   0.0004233   0.0004102   0.0003321   0.0003229
           43          44          45          46          47          48
    1   0.0003129   0.0002517   0.0002200   0.0001823   0.0001603   0.0001364
           49          50          51          52          53          54
    1   0.0001348   0.0001310   0.0001240   0.0000395   0.0000389   0.0000331
           55          56          57          58          59          60
    1   0.0000285   0.0000265   0.0000225   0.0000193   0.0000183   0.0000170
           61          62
    1   0.0000166   0.0000130

  Amplitudes : 
  
 | HOLE  | ALPHA     | BETA      | PART  |    AMPLITUDE 
--------------------------------------------------
 |       | 111111000 | 110011000 |       |    -6.5343989686164E-01
 |       | 111111000 | 101110000 |       |     7.0622379354034E-01
--------------------------------------------------
*** Contributions RASCI wfn    Active:  93.99
                                 Hole:   0.25
                                 Part:   5.75

      Mulliken population analysis 
 ---------------------------------------------------
   Atom    Charge (a.u.)   Spin (a.u.)  
 ---------------------------------------------------
   1  S    0.000000        1.000000 
   2  S    0.000000        1.000000 
 ---------------------------------------------------
   Sum:    0.000000        2.000000 
 ---------------------------------------------------
 
  
 NATURAL OCCUPATION NUMBERS (higher than 1.0E-05)
            1           2           3           4           5           6
    1   2.0000000   2.0000000   1.9999999   1.9999998   1.9999992   1.9999992
            7           8           9          10          11          12
    1   1.9999991   1.9999989   1.9999987   1.9999986   1.9976838   1.9737989
           13          14          15          16          17          18
    1   1.9616119   1.5276058   1.5246922   1.4558981   1.4479614   0.0334283
           19          20          21          22          23          24
    1   0.0149466   0.0135212   0.0068619   0.0059590   0.0047557   0.0044104
           25          26          27          28          29          30
    1   0.0040127   0.0035146   0.0033071   0.0032462   0.0023145   0.0015182
           31          32          33          34          35          36
    1   0.0014050   0.0008901   0.0006802   0.0006424   0.0005813   0.0004620
           37          38          39          40          41          42
    1   0.0004423   0.0004243   0.0004233   0.0004102   0.0003321   0.0003229
           43          44          45          46          47          48
    1   0.0003129   0.0002517   0.0002200   0.0001823   0.0001603   0.0001364
           49          50          51          52          53          54
    1   0.0001348   0.0001310   0.0001240   0.0000395   0.0000389   0.0000331
           55          56          57          58          59          60
    1   0.0000285   0.0000265   0.0000225   0.0000193   0.0000183   0.0000170
           61          62
    1   0.0000166   0.0000130
  
*** Unpaired Electrons
 Yamaguchi Nd:         3.39
 Head-Gordon Nu:       2.22
 Head-Gordon Nu_nl:    2.33
  
**************************************************
 RAS-CI total energy for state   4:   -795.066186216335
  Excitation energy (eV) =  3.983185492362
  State symmetry: B1u   (D2h      )
  <S^2>      :  2.0000
  Dipole Moment:   -0.0000 X    -0.0000 Y     0.0000 Z
  Trans. Moment:   -0.0000 X    -0.0000 Y    -0.0000 Z
  Strength   :  0.000000
  Natural transition orbitals ( 1 -> 4 ):
   e-/hole pair  1 alpha:  ampl =  0.011701 (  0.0%)   [9 : 10]
   e-/hole pair  2 alpha:  ampl =  0.010968 (  0.0%)   [8 : 11]
   e-/hole pair  1 beta :  ampl =  0.909346 ( 82.7%)   [9 : 10]
   e-/hole pair  2 beta :  ampl =  0.287896 (  8.3%)   [8 : 11]
   Sum of square amplitudes: 0.92

 NATURAL OCCUPATION NUMBERS (higher than 1.0E-05)
            1           2           3           4           5           6
    1   2.0000000   2.0000000   1.9999999   1.9999998   1.9999997   1.9999996
            7           8           9          10          11          12
    1   1.9999992   1.9999987   1.9999986   1.9999984   1.9970790   1.9737799
           13          14          15          16          17          18
    1   1.9614043   1.8949575   1.8882487   1.0910167   1.0882886   0.0335993
           19          20          21          22          23          24
    1   0.0148397   0.0107179   0.0069601   0.0049055   0.0047401   0.0047103
           25          26          27          28          29          30
    1   0.0042152   0.0033147   0.0031288   0.0023667   0.0023159   0.0015103
           31          32          33          34          35          36
    1   0.0013595   0.0007327   0.0007014   0.0005645   0.0005013   0.0004113
           37          38          39          40          41          42
    1   0.0003815   0.0003712   0.0003507   0.0003476   0.0003412   0.0002771
           43          44          45          46          47          48
    1   0.0002656   0.0001875   0.0001793   0.0001591   0.0001371   0.0001205
           49          50          51          52          53          54
    1   0.0001122   0.0000993   0.0000900   0.0000337   0.0000297   0.0000248
           55          56          57          58          59          60
    1   0.0000217   0.0000192   0.0000176   0.0000165   0.0000119   0.0000117

  Amplitudes : 
  
 | HOLE  | ALPHA     | BETA      | PART  |    AMPLITUDE 
--------------------------------------------------
 |       | 111111000 | 110110000 |       |     9.1875656225904E-01
 |       | 111111000 | 101011000 |       |    -2.9051776312631E-01
--------------------------------------------------
*** Contributions RASCI wfn    Active:  94.20
                                 Hole:   0.31
                                 Part:   5.49

      Mulliken population analysis 
 ---------------------------------------------------
   Atom    Charge (a.u.)   Spin (a.u.)  
 ---------------------------------------------------
   1  S    0.000000        1.000000 
   2  S    0.000000        1.000000 
 ---------------------------------------------------
   Sum:    0.000000        2.000000 
 ---------------------------------------------------
 
  
 NATURAL OCCUPATION NUMBERS (higher than 1.0E-05)
            1           2           3           4           5           6
    1   2.0000000   2.0000000   1.9999999   1.9999998   1.9999997   1.9999996
            7           8           9          10          11          12
    1   1.9999992   1.9999987   1.9999986   1.9999984   1.9970790   1.9737799
           13          14          15          16          17          18
    1   1.9614043   1.8949575   1.8882487   1.0910167   1.0882886   0.0335993
           19          20          21          22          23          24
    1   0.0148397   0.0107179   0.0069601   0.0049055   0.0047401   0.0047103
           25          26          27          28          29          30
    1   0.0042152   0.0033147   0.0031288   0.0023667   0.0023159   0.0015103
           31          32          33          34          35          36
    1   0.0013595   0.0007327   0.0007014   0.0005645   0.0005013   0.0004113
           37          38          39          40          41          42
    1   0.0003815   0.0003712   0.0003507   0.0003476   0.0003412   0.0002771
           43          44          45          46          47          48
    1   0.0002656   0.0001875   0.0001793   0.0001591   0.0001371   0.0001205
           49          50          51          52          53          54
    1   0.0001122   0.0000993   0.0000900   0.0000337   0.0000297   0.0000248
           55          56          57          58          59          60
    1   0.0000217   0.0000192   0.0000176   0.0000165   0.0000119   0.0000117
  
*** Unpaired Electrons
 Yamaguchi Nd:         2.74
 Head-Gordon Nu:       2.21
 Head-Gordon Nu_nl:    2.07
  
**************************************************
 RAS-CI total energy for state   5:   -795.039371245979
  Excitation energy (eV) =  4.712857960327
  State symmetry: B2u   (D2h      )
  <S^2>      :  2.0000
  Dipole Moment:    0.0000 X     0.0000 Y     0.0000 Z
  Trans. Moment:   -0.1541 X    -0.0000 Y    -0.0000 Z
  Strength   :  0.002741
  Natural transition orbitals ( 1 -> 5 ):
   e-/hole pair  1 alpha:  ampl =  0.929768 ( 86.4%)   [9 : 10]
   e-/hole pair  2 alpha:  ampl =  0.048331 (  0.2%)   [8 : 11]
   e-/hole pair  1 beta :  ampl =  0.039195 (  0.2%)   [9 : 10]
   e-/hole pair  2 beta :  ampl =  0.035700 (  0.1%)   [8 : 11]
   Sum of square amplitudes: 0.87

 NATURAL OCCUPATION NUMBERS (higher than 1.0E-05)
            1           2           3           4           5           6
    1   2.0000000   2.0000000   1.9999999   1.9999996   1.9999991   1.9999988
            7           8           9          10          11          12
    1   1.9999987   1.9999985   1.9999981   1.9999980   1.9976904   1.9660060
           13          14          15          16          17          18
    1   1.9548347   1.9429571   1.8720924   1.0285656   0.9839428   0.1475208
           19          20          21          22          23          24
    1   0.0273854   0.0159665   0.0088124   0.0072544   0.0069742   0.0066788
           25          26          27          28          29          30
    1   0.0066436   0.0046943   0.0033025   0.0031945   0.0030548   0.0030276
           31          32          33          34          35          36
    1   0.0014765   0.0013564   0.0012840   0.0007790   0.0005876   0.0003735
           37          38          39          40          41          42
    1   0.0003590   0.0003384   0.0003329   0.0002811   0.0002716   0.0002298
           43          44          45          46          47          48
    1   0.0002156   0.0002062   0.0001729   0.0001667   0.0001284   0.0001269
           49          50          51          52          53          54
    1   0.0001253   0.0000981   0.0000961   0.0000841   0.0000478   0.0000441
           55          56          57          58          59          60
    1   0.0000408   0.0000370   0.0000290   0.0000285   0.0000190   0.0000176
           61          62
    1   0.0000129   0.0000126

  Amplitudes : 
  
 | HOLE  | ALPHA     | BETA      | PART  |    AMPLITUDE 
--------------------------------------------------
 |       | 111011100 | 111010000 |       |     9.0150857782434E-01
 |       | 101111100 | 110011000 |       |    -1.0361305065918E-01
 |       | 101111100 | 101110000 |       |    -1.7680043512280E-01
 |       | 111011000 | 111010000 |  22   |    -1.7461077305101E-01
--------------------------------------------------
*** Contributions RASCI wfn    Active:  88.78
                                 Hole:   0.23
                                 Part:  10.99

      Mulliken population analysis 
 ---------------------------------------------------
   Atom    Charge (a.u.)   Spin (a.u.)  
 ---------------------------------------------------
   1  S    0.000000        1.000000 
   2  S    0.000000        1.000000 
 ---------------------------------------------------
   Sum:    0.000000        2.000000 
 ---------------------------------------------------
 
  
 NATURAL OCCUPATION NUMBERS (higher than 1.0E-05)
            1           2           3           4           5           6
    1   2.0000000   2.0000000   1.9999999   1.9999996   1.9999991   1.9999988
            7           8           9          10          11          12
    1   1.9999987   1.9999985   1.9999981   1.9999980   1.9976904   1.9660060
           13          14          15          16          17          18
    1   1.9548347   1.9429571   1.8720924   1.0285656   0.9839428   0.1475208
           19          20          21          22          23          24
    1   0.0273854   0.0159665   0.0088124   0.0072544   0.0069742   0.0066788
           25          26          27          28          29          30
    1   0.0066436   0.0046943   0.0033025   0.0031945   0.0030548   0.0030276
           31          32          33          34          35          36
    1   0.0014765   0.0013564   0.0012840   0.0007790   0.0005876   0.0003735
           37          38          39          40          41          42
    1   0.0003590   0.0003384   0.0003329   0.0002811   0.0002716   0.0002298
           43          44          45          46          47          48
    1   0.0002156   0.0002062   0.0001729   0.0001667   0.0001284   0.0001269
           49          50          51          52          53          54
    1   0.0001253   0.0000981   0.0000961   0.0000841   0.0000478   0.0000441
           55          56          57          58          59          60
    1   0.0000408   0.0000370   0.0000290   0.0000285   0.0000190   0.0000176
           61          62
    1   0.0000129   0.0000126
  
*** Unpaired Electrons
 Yamaguchi Nd:         2.99
 Head-Gordon Nu:       2.48
 Head-Gordon Nu_nl:    2.16
  
**************************************************
 RAS-CI total energy for state   6:   -795.038700522465
  Excitation energy (eV) =  4.731109275735
  State symmetry: B3u   (D2h      )
  <S^2>      :  2.0000
  Dipole Moment:    0.0000 X     0.0000 Y     0.0000 Z
  Trans. Moment:    0.0000 X    -0.1463 Y    -0.0000 Z
  Strength   :  0.002482
  Natural transition orbitals ( 1 -> 6 ):
   e-/hole pair  1 alpha:  ampl =  0.930250 ( 86.5%)   [9 : 10]
   e-/hole pair  2 alpha:  ampl =  0.048660 (  0.2%)   [8 : 11]
   e-/hole pair  1 beta :  ampl =  0.039479 (  0.2%)   [9 : 10]
   e-/hole pair  2 beta :  ampl =  0.034612 (  0.1%)   [8 : 11]
   Sum of square amplitudes: 0.87

 NATURAL OCCUPATION NUMBERS (higher than 1.0E-05)
            1           2           3           4           5           6
    1   2.0000000   2.0000000   1.9999999   1.9999995   1.9999992   1.9999990
            7           8           9          10          11          12
    1   1.9999990   1.9999982   1.9999982   1.9999979   1.9974666   1.9657231
           13          14          15          16          17          18
    1   1.9547309   1.9474044   1.8727803   1.0303859   0.9837758   0.1436672
           19          20          21          22          23          24
    1   0.0272404   0.0144408   0.0095982   0.0088401   0.0068448   0.0064946
           25          26          27          28          29          30
    1   0.0039041   0.0036552   0.0032734   0.0032313   0.0031016   0.0030224
           31          32          33          34          35          36
    1   0.0026445   0.0014318   0.0013617   0.0007275   0.0005209   0.0003996
           37          38          39          40          41          42
    1   0.0003491   0.0003191   0.0003058   0.0002900   0.0002384   0.0002092
           43          44          45          46          47          48
    1   0.0002020   0.0001973   0.0001916   0.0001255   0.0001162   0.0001052
           49          50          51          52          53          54
    1   0.0001035   0.0000940   0.0000915   0.0000910   0.0000445   0.0000416
           55          56          57          58          59          60
    1   0.0000401   0.0000398   0.0000240   0.0000219   0.0000196   0.0000183
           61          62          63
    1   0.0000163   0.0000145   0.0000106

  Amplitudes : 
  
 | HOLE  | ALPHA     | BETA      | PART  |    AMPLITUDE 
--------------------------------------------------
 |       | 111110100 | 111010000 |       |     9.0277265710270E-01
 |       | 110111100 | 110011000 |       |     1.7026330243267E-01
 |       | 110111100 | 101110000 |       |     1.0566705649216E-01
 |       | 111110000 | 111010000 |  22   |    -1.7759393743573E-01
--------------------------------------------------
*** Contributions RASCI wfn    Active:  88.88
                                 Hole:   0.26
                                 Part:  10.86

      Mulliken population analysis 
 ---------------------------------------------------
   Atom    Charge (a.u.)   Spin (a.u.)  
 ---------------------------------------------------
   1  S    0.000000        1.000000 
   2  S    0.000000        1.000000 
 ---------------------------------------------------
   Sum:    0.000000        2.000000 
 ---------------------------------------------------
 
  
 NATURAL OCCUPATION NUMBERS (higher than 1.0E-05)
            1           2           3           4           5           6
    1   2.0000000   2.0000000   1.9999999   1.9999995   1.9999992   1.9999990
            7           8           9          10          11          12
    1   1.9999990   1.9999982   1.9999982   1.9999979   1.9974666   1.9657231
           13          14          15          16          17          18
    1   1.9547309   1.9474044   1.8727803   1.0303859   0.9837758   0.1436672
           19          20          21          22          23          24
    1   0.0272404   0.0144408   0.0095982   0.0088401   0.0068448   0.0064946
           25          26          27          28          29          30
    1   0.0039041   0.0036552   0.0032734   0.0032313   0.0031016   0.0030224
           31          32          33          34          35          36
    1   0.0026445   0.0014318   0.0013617   0.0007275   0.0005209   0.0003996
           37          38          39          40          41          42
    1   0.0003491   0.0003191   0.0003058   0.0002900   0.0002384   0.0002092
           43          44          45          46          47          48
    1   0.0002020   0.0001973   0.0001916   0.0001255   0.0001162   0.0001052
           49          50          51          52          53          54
    1   0.0001035   0.0000940   0.0000915   0.0000910   0.0000445   0.0000416
           55          56          57          58          59          60
    1   0.0000401   0.0000398   0.0000240   0.0000219   0.0000196   0.0000183
           61          62          63
    1   0.0000163   0.0000145   0.0000106
  
*** Unpaired Electrons
 Yamaguchi Nd:         2.97
 Head-Gordon Nu:       2.46
 Head-Gordon Nu_nl:    2.15
  
**************************************************
 RAS-CI total energy for state   7:   -795.029550204862
  Excitation energy (eV) =  4.980102086059
  State symmetry: Au    (D2h      )
  <S^2>      :  2.0000
  Dipole Moment:   -0.0000 X     0.0000 Y     0.0000 Z
  Trans. Moment:    0.0000 X     0.0000 Y    -1.0673 Z
  Strength   :  0.138994
  Natural transition orbitals ( 1 -> 7 ):
   e-/hole pair  1 alpha:  ampl =  0.174655 (  3.1%)   [9 : 10]
   e-/hole pair  2 alpha:  ampl =  0.112281 (  1.3%)   [8 : 11]
   e-/hole pair  1 beta :  ampl =  0.676156 ( 45.7%)   [9 : 10]
   e-/hole pair  2 beta :  ampl =  0.622223 ( 38.7%)   [8 : 11]
   Sum of square amplitudes: 0.94

 NATURAL OCCUPATION NUMBERS (higher than 1.0E-05)
            1           2           3           4           5           6
    1   2.0000000   2.0000000   1.9999998   1.9999997   1.9999995   1.9999992
            7           8           9          10          11          12
    1   1.9999991   1.9999989   1.9999987   1.9999975   1.9965601   1.9723541
           13          14          15          16          17          18
    1   1.9048635   1.5597628   1.4810320   1.4699642   1.3990677   0.0921644
           19          20          21          22          23          24
    1   0.0283581   0.0252948   0.0141975   0.0097350   0.0066518   0.0062671
           25          26          27          28          29          30
    1   0.0049337   0.0042672   0.0042603   0.0032058   0.0031773   0.0030552
           31          32          33          34          35          36
    1   0.0027319   0.0012552   0.0012414   0.0010632   0.0010598   0.0004349
           37          38          39          40          41          42
    1   0.0004015   0.0003701   0.0003269   0.0003230   0.0003171   0.0001953
           43          44          45          46          47          48
    1   0.0001948   0.0001483   0.0001395   0.0001265   0.0001087   0.0000426
           49          50          51          52          53          54
    1   0.0000406   0.0000401   0.0000392   0.0000295   0.0000254   0.0000249
           55          56          57          58          59
    1   0.0000247   0.0000208   0.0000196   0.0000189   0.0000130

  Amplitudes : 
  
 | HOLE  | ALPHA     | BETA      | PART  |    AMPLITUDE 
--------------------------------------------------
 |       | 111111000 | 111000100 |       |    -1.1744963243758E-01
 |       | 111111000 | 110011000 |       |     6.6336864839501E-01
 |       | 111111000 | 101110000 |       |     6.0957238595067E-01
 |       | 111101100 | 111010000 |       |     1.6126151435174E-01
 |       | 111110000 | 111010000 |  26   |     1.1778892909495E-01
 |       | 111011000 | 111010000 |  28   |     1.1493383860389E-01
--------------------------------------------------
*** Contributions RASCI wfn    Active:  87.35
                                 Hole:   0.45
                                 Part:  12.20

      Mulliken population analysis 
 ---------------------------------------------------
   Atom    Charge (a.u.)   Spin (a.u.)  
 ---------------------------------------------------
   1  S    0.000000        1.000000 
   2  S    0.000000        1.000000 
 ---------------------------------------------------
   Sum:    0.000000        2.000000 
 ---------------------------------------------------
 
  
 NATURAL OCCUPATION NUMBERS (higher than 1.0E-05)
            1           2           3           4           5           6
    1   2.0000000   2.0000000   1.9999998   1.9999997   1.9999995   1.9999992
            7           8           9          10          11          12
    1   1.9999991   1.9999989   1.9999987   1.9999975   1.9965601   1.9723541
           13          14          15          16          17          18
    1   1.9048635   1.5597628   1.4810320   1.4699642   1.3990677   0.0921644
           19          20          21          22          23          24
    1   0.0283581   0.0252948   0.0141975   0.0097350   0.0066518   0.0062671
           25          26          27          28          29          30
    1   0.0049337   0.0042672   0.0042603   0.0032058   0.0031773   0.0030552
           31          32          33          34          35          36
    1   0.0027319   0.0012552   0.0012414   0.0010632   0.0010598   0.0004349
           37          38          39          40          41          42
    1   0.0004015   0.0003701   0.0003269   0.0003230   0.0003171   0.0001953
           43          44          45          46          47          48
    1   0.0001948   0.0001483   0.0001395   0.0001265   0.0001087   0.0000426
           49          50          51          52          53          54
    1   0.0000406   0.0000401   0.0000392   0.0000295   0.0000254   0.0000249
           55          56          57          58          59
    1   0.0000247   0.0000208   0.0000196   0.0000189   0.0000130
  
*** Unpaired Electrons
 Yamaguchi Nd:         3.74
 Head-Gordon Nu:       2.43
 Head-Gordon Nu_nl:    2.45
  
**************************************************
 RAS-CI total energy for state   8:   -795.028062876379
  Excitation energy (eV) =  5.020574353255
  State symmetry: B2g   (D2h      )
  <S^2>      :  2.0000
  Dipole Moment:   -0.0000 X    -0.0000 Y     0.0000 Z
  Trans. Moment:    0.0000 X    -0.0000 Y    -0.0000 Z
  Strength   :  0.000000
  Natural transition orbitals ( 1 -> 8 ):
   e-/hole pair  1 alpha:  ampl =  0.058733 (  0.3%)   [9 : 10]
   e-/hole pair  2 alpha:  ampl =  0.045156 (  0.2%)   [8 : 11]
   e-/hole pair  1 beta :  ampl =  0.942476 ( 88.8%)   [9 : 10]
   e-/hole pair  2 beta :  ampl =  0.062735 (  0.4%)   [8 : 11]
   Sum of square amplitudes: 0.90

 NATURAL OCCUPATION NUMBERS (higher than 1.0E-05)
            1           2           3           4           5           6
    1   2.0000000   2.0000000   1.9999997   1.9999996   1.9999994   1.9999992
            7           8           9          10          11          12
    1   1.9999990   1.9999990   1.9999981   1.9999977   1.9954503   1.9750495
           13          14          15          16          17          18
    1   1.9584933   1.9550088   1.9538275   1.0182609   1.0117646   0.0336593
           19          20          21          22          23          24
    1   0.0187555   0.0139052   0.0137090   0.0074109   0.0061252   0.0059025
           25          26          27          28          29          30
    1   0.0047968   0.0045981   0.0044297   0.0035167   0.0024971   0.0024273
           31          32          33          34          35          36
    1   0.0016930   0.0014273   0.0013911   0.0012354   0.0009116   0.0004304
           37          38          39          40          41          42
    1   0.0003834   0.0003824   0.0003112   0.0002806   0.0002247   0.0001831
           43          44          45          46          47          48
    1   0.0001819   0.0001671   0.0001663   0.0001618   0.0001553   0.0001446
           49          50          51          52          53          54
    1   0.0001183   0.0000746   0.0000717   0.0000558   0.0000533   0.0000355
           55          56          57          58          59          60
    1   0.0000294   0.0000238   0.0000225   0.0000206   0.0000193   0.0000168
           61          62
    1   0.0000168   0.0000116

  Amplitudes : 
  
 | HOLE  | ALPHA     | BETA      | PART  |    AMPLITUDE 
--------------------------------------------------
 |       | 111111000 | 111001000 |       |     9.4298691199701E-01
--------------------------------------------------
*** Contributions RASCI wfn    Active:  91.32
                                 Hole:   0.75
                                 Part:   7.93

      Mulliken population analysis 
 ---------------------------------------------------
   Atom    Charge (a.u.)   Spin (a.u.)  
 ---------------------------------------------------
   1  S    0.000000        1.000000 
   2  S    0.000000        1.000000 
 ---------------------------------------------------
   Sum:    0.000000        2.000000 
 ---------------------------------------------------
 
  
 NATURAL OCCUPATION NUMBERS (higher than 1.0E-05)
            1           2           3           4           5           6
    1   2.0000000   2.0000000   1.9999997   1.9999996   1.9999994   1.9999992
            7           8           9          10          11          12
    1   1.9999990   1.9999990   1.9999981   1.9999977   1.9954503   1.9750495
           13          14          15          16          17          18
    1   1.9584933   1.9550088   1.9538275   1.0182609   1.0117646   0.0336593
           19          20          21          22          23          24
    1   0.0187555   0.0139052   0.0137090   0.0074109   0.0061252   0.0059025
           25          26          27          28          29          30
    1   0.0047968   0.0045981   0.0044297   0.0035167   0.0024971   0.0024273
           31          32          33          34          35          36
    1   0.0016930   0.0014273   0.0013911   0.0012354   0.0009116   0.0004304
           37          38          39          40          41          42
    1   0.0003834   0.0003824   0.0003112   0.0002806   0.0002247   0.0001831
           43          44          45          46          47          48
    1   0.0001819   0.0001671   0.0001663   0.0001618   0.0001553   0.0001446
           49          50          51          52          53          54
    1   0.0001183   0.0000746   0.0000717   0.0000558   0.0000533   0.0000355
           55          56          57          58          59          60
    1   0.0000294   0.0000238   0.0000225   0.0000206   0.0000193   0.0000168
           61          62
    1   0.0000168   0.0000116
  
*** Unpaired Electrons
 Yamaguchi Nd:         2.58
 Head-Gordon Nu:       2.26
 Head-Gordon Nu_nl:    2.03
  
**************************************************
 RAS-CI total energy for state   9:   -795.026880365146
  Excitation energy (eV) =  5.052752121050
  State symmetry: B3g   (D2h      )
  <S^2>      :  2.0000
  Dipole Moment:    0.0000 X    -0.0000 Y     0.0000 Z
  Trans. Moment:   -0.0000 X    -0.0000 Y    -0.0000 Z
  Strength   :  0.000000
  Natural transition orbitals ( 1 -> 9 ):
   e-/hole pair  1 alpha:  ampl =  0.056145 (  0.3%)   [9 : 10]
   e-/hole pair  2 alpha:  ampl =  0.045627 (  0.2%)   [8 : 11]
   e-/hole pair  1 beta :  ampl =  0.943131 ( 88.9%)   [9 : 10]
   e-/hole pair  2 beta :  ampl =  0.063456 (  0.4%)   [8 : 11]
   Sum of square amplitudes: 0.91

 NATURAL OCCUPATION NUMBERS (higher than 1.0E-05)
            1           2           3           4           5           6
    1   2.0000000   2.0000000   1.9999999   1.9999998   1.9999997   1.9999996
            7           8           9          10          11          12
    1   1.9999987   1.9999984   1.9999978   1.9999978   1.9954378   1.9814078
           13          14          15          16          17          18
    1   1.9594034   1.9537188   1.9522833   1.0185816   1.0101250   0.0338474
           19          20          21          22          23          24
    1   0.0174705   0.0134529   0.0129829   0.0076410   0.0061694   0.0059271
           25          26          27          28          29          30
    1   0.0047159   0.0046482   0.0037686   0.0035488   0.0026954   0.0021449
           31          32          33          34          35          36
    1   0.0016665   0.0013824   0.0013515   0.0012163   0.0008838   0.0003852
           37          38          39          40          41          42
    1   0.0003759   0.0003304   0.0002970   0.0002539   0.0002241   0.0002115
           43          44          45          46          47          48
    1   0.0001985   0.0001699   0.0001497   0.0001434   0.0001314   0.0000935
           49          50          51          52          53          54
    1   0.0000925   0.0000851   0.0000800   0.0000575   0.0000517   0.0000435
           55          56          57          58          59          60
    1   0.0000359   0.0000246   0.0000198   0.0000184   0.0000157   0.0000112

  Amplitudes : 
  
 | HOLE  | ALPHA     | BETA      | PART  |    AMPLITUDE 
--------------------------------------------------
 |       | 111111000 | 111100000 |       |     9.4597287214861E-01
--------------------------------------------------
*** Contributions RASCI wfn    Active:  91.80
                                 Hole:   0.76
                                 Part:   7.44

      Mulliken population analysis 
 ---------------------------------------------------
   Atom    Charge (a.u.)   Spin (a.u.)  
 ---------------------------------------------------
   1  S    0.000000        1.000000 
   2  S    0.000000        1.000000 
 ---------------------------------------------------
   Sum:    0.000000        2.000000 
 ---------------------------------------------------
 
  
 NATURAL OCCUPATION NUMBERS (higher than 1.0E-05)
            1           2           3           4           5           6
    1   2.0000000   2.0000000   1.9999999   1.9999998   1.9999997   1.9999996
            7           8           9          10          11          12
    1   1.9999987   1.9999984   1.9999978   1.9999978   1.9954378   1.9814078
           13          14          15          16          17          18
    1   1.9594034   1.9537188   1.9522833   1.0185816   1.0101250   0.0338474
           19          20          21          22          23          24
    1   0.0174705   0.0134529   0.0129829   0.0076410   0.0061694   0.0059271
           25          26          27          28          29          30
    1   0.0047159   0.0046482   0.0037686   0.0035488   0.0026954   0.0021449
           31          32          33          34          35          36
    1   0.0016665   0.0013824   0.0013515   0.0012163   0.0008838   0.0003852
           37          38          39          40          41          42
    1   0.0003759   0.0003304   0.0002970   0.0002539   0.0002241   0.0002115
           43          44          45          46          47          48
    1   0.0001985   0.0001699   0.0001497   0.0001434   0.0001314   0.0000935
           49          50          51          52          53          54
    1   0.0000925   0.0000851   0.0000800   0.0000575   0.0000517   0.0000435
           55          56          57          58          59          60
    1   0.0000359   0.0000246   0.0000198   0.0000184   0.0000157   0.0000112
  
*** Unpaired Electrons
 Yamaguchi Nd:         2.56
 Head-Gordon Nu:       2.26
 Head-Gordon Nu_nl:    2.03
  
**************************************************
 RAS-CI total energy for state  10:   -794.958741249834
  Excitation energy (eV) =  6.906911785393
  State symmetry: B3g   (D2h      )
  <S^2>      :  6.0000
  Dipole Moment:   -0.0000 X     0.0000 Y     0.0000 Z
  Trans. Moment:    0.0000 X    -0.0000 Y     0.0000 Z
  Strength   :  0.000000
  Natural transition orbitals ( 1 -> 10 ):
   e-/hole pair  1 alpha:  ampl =  0.478267 ( 22.9%)   [9 : 10]
   e-/hole pair  2 alpha:  ampl =  0.029651 (  0.1%)   [8 : 11]
   e-/hole pair  1 beta :  ampl =  0.478267 ( 22.9%)   [9 : 10]
   e-/hole pair  2 beta :  ampl =  0.029651 (  0.1%)   [8 : 11]
   Sum of square amplitudes: 0.46

 NATURAL OCCUPATION NUMBERS (higher than 1.0E-05)
            1           2           3           4           5           6
    1   2.0000000   2.0000000   1.9999999   1.9999998   1.9999993   1.9999992
            7           8           9          10          11          12
    1   1.9999991   1.9999987   1.9999986   1.9999982   1.9984674   1.9717247
           13          14          15          16          17          18
    1   1.9664223   1.9593470   1.0166994   1.0010731   0.9991378   0.9873977
           19          20          21          22          23          24
    1   0.0234961   0.0158648   0.0077954   0.0073496   0.0067920   0.0051750
           25          26          27          28          29          30
    1   0.0048209   0.0046001   0.0043641   0.0043279   0.0035660   0.0025712
           31          32          33          34          35          36
    1   0.0016532   0.0015679   0.0009390   0.0006979   0.0006799   0.0003967
           37          38          39          40          41          42
    1   0.0003454   0.0003417   0.0002662   0.0002481   0.0002113   0.0001950
           43          44          45          46          47          48
    1   0.0001576   0.0001429   0.0001345   0.0001335   0.0001179   0.0001152
           49          50          51          52          53          54
    1   0.0001107   0.0001092   0.0001065   0.0000744   0.0000562   0.0000338
           55          56          57          58          59          60
    1   0.0000262   0.0000217   0.0000215   0.0000206   0.0000181   0.0000173
           61          62          63
    1   0.0000127   0.0000124   0.0000117

  Amplitudes : 
  
 | HOLE  | ALPHA     | BETA      | PART  |    AMPLITUDE 
--------------------------------------------------
 |       | 111111000 | 101010100 |       |    -4.6514725348846E-01
 |       | 111110100 | 101011000 |       |     4.6514725348847E-01
 |       | 111011100 | 101110000 |       |    -4.6514725348846E-01
 |       | 101111100 | 111010000 |       |     4.6514725348843E-01
 |       | 101111000 | 111010000 |  22   |    -1.0276280992510E-01
 |       | 111011000 | 101110000 |  22   |     1.0276280992510E-01
 |       | 111110000 | 101011000 |  22   |    -1.0276280992510E-01
 |       | 111111000 | 101010000 |  22   |     1.0276280992509E-01
--------------------------------------------------
*** Contributions RASCI wfn    Active:  88.10
                                 Hole:   0.16
                                 Part:  11.74

      Mulliken population analysis 
 ---------------------------------------------------
   Atom    Charge (a.u.)   Spin (a.u.)  
 ---------------------------------------------------
   1  S    0.000000        1.000000 
   2  S    0.000000        1.000000 
 ---------------------------------------------------
   Sum:    0.000000        2.000000 
 ---------------------------------------------------
 
  
 NATURAL OCCUPATION NUMBERS (higher than 1.0E-05)
            1           2           3           4           5           6
    1   2.0000000   2.0000000   1.9999999   1.9999998   1.9999993   1.9999992
            7           8           9          10          11          12
    1   1.9999991   1.9999987   1.9999986   1.9999982   1.9984674   1.9717247
           13          14          15          16          17          18
    1   1.9664223   1.9593470   1.0166994   1.0010731   0.9991378   0.9873977
           19          20          21          22          23          24
    1   0.0234961   0.0158648   0.0077954   0.0073496   0.0067920   0.0051750
           25          26          27          28          29          30
    1   0.0048209   0.0046001   0.0043641   0.0043279   0.0035660   0.0025712
           31          32          33          34          35          36
    1   0.0016532   0.0015679   0.0009390   0.0006979   0.0006799   0.0003967
           37          38          39          40          41          42
    1   0.0003454   0.0003417   0.0002662   0.0002481   0.0002113   0.0001950
           43          44          45          46          47          48
    1   0.0001576   0.0001429   0.0001345   0.0001335   0.0001179   0.0001152
           49          50          51          52          53          54
    1   0.0001107   0.0001092   0.0001065   0.0000744   0.0000562   0.0000338
           55          56          57          58          59          60
    1   0.0000262   0.0000217   0.0000215   0.0000206   0.0000181   0.0000173
           61          62          63
    1   0.0000127   0.0000124   0.0000117
  
*** Unpaired Electrons
 Yamaguchi Nd:         4.40
 Head-Gordon Nu:       4.17
 Head-Gordon Nu_nl:    4.02
  
**************************************************
 RAS-CI total energy for state  11:   -794.920790300186
  Excitation energy (eV) =  7.939609667330
  State symmetry: B3g   (D2h      )
  <S^2>      :  2.0000
  Dipole Moment:    0.0000 X    -0.0000 Y     0.0000 Z
  Trans. Moment:   -0.0000 X     0.0000 Y     0.0000 Z
  Strength   :  0.000000
  Natural transition orbitals ( 1 -> 11 ):
   e-/hole pair  1 alpha:  ampl =  0.472379 ( 22.3%)   [9 : 10]
   e-/hole pair  2 alpha:  ampl =  0.144264 (  2.1%)   [8 : 11]
   e-/hole pair  1 beta :  ampl =  0.093381 (  0.9%)   [9 : 10]
   e-/hole pair  2 beta :  ampl =  0.015159 (  0.0%)   [8 : 11]
   Sum of square amplitudes: 0.25

 NATURAL OCCUPATION NUMBERS (higher than 1.0E-05)
            1           2           3           4           5           6
    1   2.0000000   2.0000000   1.9999999   1.9999998   1.9999993   1.9999990
            7           8           9          10          11          12
    1   1.9999989   1.9999986   1.9999985   1.9999981   1.9982726   1.9715695
           13          14          15          16          17          18
    1   1.9637752   1.6721834   1.2946572   1.2628436   0.9629899   0.7463663
           19          20          21          22          23          24
    1   0.0494462   0.0159454   0.0077018   0.0070473   0.0064692   0.0063674
           25          26          27          28          29          30
    1   0.0053364   0.0045555   0.0043767   0.0035548   0.0033056   0.0028625
           31          32          33          34          35          36
    1   0.0018028   0.0014939   0.0010778   0.0007786   0.0006741   0.0004147
           37          38          39          40          41          42
    1   0.0003853   0.0003428   0.0003358   0.0003348   0.0003324   0.0002892
           43          44          45          46          47          48
    1   0.0002878   0.0002707   0.0002672   0.0001830   0.0001685   0.0001579
           49          50          51          52          53          54
    1   0.0001576   0.0001290   0.0001190   0.0000769   0.0000490   0.0000345
           55          56          57          58          59          60
    1   0.0000304   0.0000296   0.0000275   0.0000258   0.0000200   0.0000179
           61          62          63
    1   0.0000150   0.0000147   0.0000143

  Amplitudes : 
  
 | HOLE  | ALPHA     | BETA      | PART  |    AMPLITUDE 
--------------------------------------------------
 |       | 111110100 | 110110000 |       |    -1.2971755087171E-01
 |       | 111110100 | 101011000 |       |     5.6478398106149E-01
 |       | 111011100 | 110011000 |       |     4.9028554836232E-01
 |       | 111011100 | 101110000 |       |     1.8674287839425E-01
 |       | 111011010 | 111010000 |       |     1.3994074760564E-01
 |       | 101111100 | 111010000 |       |    -4.6935119884506E-01
 |       | 111110000 | 101011000 |  22   |    -1.1668631425819E-01
--------------------------------------------------
*** Contributions RASCI wfn    Active:  88.57
                                 Hole:   0.18
                                 Part:  11.25

      Mulliken population analysis 
 ---------------------------------------------------
   Atom    Charge (a.u.)   Spin (a.u.)  
 ---------------------------------------------------
   1  S    0.000000        1.000000 
   2  S    0.000000        1.000000 
 ---------------------------------------------------
   Sum:    0.000000        2.000000 
 ---------------------------------------------------
 
  
 NATURAL OCCUPATION NUMBERS (higher than 1.0E-05)
            1           2           3           4           5           6
    1   2.0000000   2.0000000   1.9999999   1.9999998   1.9999993   1.9999990
            7           8           9          10          11          12
    1   1.9999989   1.9999986   1.9999985   1.9999981   1.9982726   1.9715695
           13          14          15          16          17          18
    1   1.9637752   1.6721834   1.2946572   1.2628436   0.9629899   0.7463663
           19          20          21          22          23          24
    1   0.0494462   0.0159454   0.0077018   0.0070473   0.0064692   0.0063674
           25          26          27          28          29          30
    1   0.0053364   0.0045555   0.0043767   0.0035548   0.0033056   0.0028625
           31          32          33          34          35          36
    1   0.0018028   0.0014939   0.0010778   0.0007786   0.0006741   0.0004147
           37          38          39          40          41          42
    1   0.0003853   0.0003428   0.0003358   0.0003348   0.0003324   0.0002892
           43          44          45          46          47          48
    1   0.0002878   0.0002707   0.0002672   0.0001830   0.0001685   0.0001579
           49          50          51          52          53          54
    1   0.0001576   0.0001290   0.0001190   0.0000769   0.0000490   0.0000345
           55          56          57          58          59          60
    1   0.0000304   0.0000296   0.0000275   0.0000258   0.0000200   0.0000179
           61          62          63
    1   0.0000150   0.0000147   0.0000143
  
*** Unpaired Electrons
 Yamaguchi Nd:         4.71
 Head-Gordon Nu:       3.67
 Head-Gordon Nu_nl:    3.89
  
**************************************************
 RAS-CI total energy for state  12:   -794.919499683179
  Excitation energy (eV) =  7.974729142935
  State symmetry: B2g   (D2h      )
  <S^2>      :  2.0000
  Dipole Moment:   -0.0000 X    -0.0000 Y     0.0000 Z
  Trans. Moment:   -0.0000 X     0.0000 Y     0.0000 Z
  Strength   :  0.000000
  Natural transition orbitals ( 1 -> 12 ):
   e-/hole pair  1 alpha:  ampl =  0.459585 ( 21.1%)   [9 : 10]
   e-/hole pair  2 alpha:  ampl =  0.149707 (  2.2%)   [8 : 11]
   e-/hole pair  1 beta :  ampl =  0.077349 (  0.6%)   [9 : 10]
   e-/hole pair  2 beta :  ampl =  0.017532 (  0.0%)   [8 : 11]
   Sum of square amplitudes: 0.24

 NATURAL OCCUPATION NUMBERS (higher than 1.0E-05)
            1           2           3           4           5           6
    1   2.0000000   2.0000000   1.9999999   1.9999997   1.9999994   1.9999992
            7           8           9          10          11          12
    1   1.9999991   1.9999984   1.9999983   1.9999983   1.9978383   1.9714950
           13          14          15          16          17          18
    1   1.9636278   1.5668847   1.4030507   1.3384475   0.9611404   0.6712969
           19          20          21          22          23          24
    1   0.0507270   0.0129306   0.0099779   0.0076712   0.0063496   0.0052204
           25          26          27          28          29          30
    1   0.0045333   0.0040080   0.0038554   0.0037865   0.0035624   0.0029122
           31          32          33          34          35          36
    1   0.0023340   0.0014580   0.0011016   0.0006807   0.0006707   0.0004438
           37          38          39          40          41          42
    1   0.0003737   0.0003563   0.0003529   0.0003091   0.0002946   0.0002866
           43          44          45          46          47          48
    1   0.0002802   0.0002614   0.0002560   0.0001807   0.0001534   0.0001513
           49          50          51          52          53          54
    1   0.0001482   0.0001259   0.0001155   0.0000721   0.0000372   0.0000358
           55          56          57          58          59          60
    1   0.0000307   0.0000267   0.0000246   0.0000230   0.0000209   0.0000203
           61          62          63
    1   0.0000171   0.0000158   0.0000124

  Amplitudes : 
  
 | HOLE  | ALPHA     | BETA      | PART  |    AMPLITUDE 
--------------------------------------------------
 |       | 111110100 | 110011000 |       |    -1.1808486025692E-01
 |       | 111110100 | 101110000 |       |    -5.6942681589048E-01
 |       | 111110010 | 111010000 |       |    -1.4579858500279E-01
 |       | 111011100 | 110110000 |       |    -5.0150394682174E-01
 |       | 111011100 | 101011000 |       |     1.7925531784969E-01
[...]
     3    3.018227831030e-01
     4   -1.013274313814e+00
     5    1.036883357972e+00
     6    3.657591787596e-16
     7    5.150596783284e-16
     8   -5.089715393473e-02
     9    4.198895070903e-16
    10   -4.191456027972e-16
    11   -5.883169390350e-03
    12    3.889054719041e-16
    13    7.379109241647e-16
    14   -1.701705759956e-02
    15   -7.284997942479e-15
    16   -4.010052945230e-15
    17    5.224556235091e-01
    18    1.385282225985e-14
    19    8.018520750511e-15
    20   -6.468739281494e-01
    21   -5.810111240190e-02
    22   -1.548374200445e-15
    23   -1.110741725406e-15
    24    2.217448700791e-02
    25   -9.948367389440e-16
    26   -3.051937498156e-01
    27   -1.314315295770e-15
    28   -1.957489341097e-15
    29    7.899599449083e-02
    30   -3.957225455001e-15
    31   -2.507709444448e-02
    32    2.181545285719e-16
    33    2.332384217373e-16
    34    1.742781748998e-03
    35   -4.571629801207e-17
    36   -1.769411164583e-16
    37   -3.927380992225e-16
    38   -4.512495111954e-02
    39   -2.611682336350e-02
    40    3.018227831031e-01
    41   -1.013274313814e+00
    42    1.036883357973e+00
    43   -1.978527209627e-15
    44   -1.244804106603e-15
    45    5.089715393475e-02
    46   -3.348633465348e-16
    47   -1.765183851469e-16
    48    5.883169390346e-03
    49    4.952395251581e-16
    50    4.181246989200e-16
    51    1.701705759962e-02
    52    1.543205350304e-14
    53    8.016309469863e-15
    54   -5.224556235095e-01
    55   -2.145609320870e-14
    56   -1.113947775426e-14
    57    6.468739281493e-01
    58   -5.810111240192e-02
    59    6.723752280241e-17
    60    4.137621899366e-16
    61    2.217448700791e-02
    62   -7.808296815092e-16
    63   -3.051937498155e-01
    64    2.416018377521e-15
    65    1.909279714288e-15
    66    7.899599449083e-02
    67   -3.225768161519e-15
    68    2.507709444444e-02
    69   -1.120502821732e-16
    70   -3.305181217876e-16
    71   -1.742781748998e-03
    72   -2.614830576653e-16
    73    1.913794642317e-17
    74    2.688092307444e-16
Sym=X
Ene= 0.576249
Spin=Alpha
Occup=0
     1    9.779963197583e-04
     2    6.060493731164e-04
     3   -6.955726925405e-03
     4    3.152483099803e-02
     5   -5.057321192764e-02
     6   -7.795675424276e-16
     7   -1.036512601944e-16
     8   -2.310553803436e-03
     9   -1.984782836326e-16
    10   -2.719049623939e-16
    11   -1.253685820906e-03
    12    1.189573053119e-15
    13    1.275477095571e-15
    14    3.797296836408e-03
    15    2.800985535033e-15
    16   -3.009387763780e-16
    17    8.407376083011e-03
    18    2.286098957240e-15
    19   -3.847343154168e-15
    20   -2.206186902512e-02
    21    1.799165099688e-03
    22    1.706163382268e-15
    23   -6.150218218726e-16
    24    1.560541751050e-01
    25    7.318268501784e-18
    26    3.365507041997e-03
    27    1.180564070153e-14
    28   -4.584388190692e-15
    29    6.621786485791e-01
    30    1.019436637837e-15
    31   -2.248017897361e-03
    32    1.839948711104e-15
    33   -1.900230692098e-16
    34   -2.001363938830e-02
    35   -1.962849586481e-17
    36    4.484241302209e-17
    37    2.345561753310e-16
    38   -9.779963197584e-04
    39   -6.060493731166e-04
    40    6.955726925406e-03
    41   -3.152483099803e-02
    42    5.057321192764e-02
    43    4.722408618348e-16
    44   -8.566697188203e-18
    45   -2.310553803436e-03
    46    3.059191891616e-16
    47    7.396737103323e-18
    48   -1.253685820907e-03
    49   -1.114869055021e-15
    50    4.458895846867e-17
    51    3.797296836407e-03
    52   -1.702529848515e-15
    53   -1.117391230426e-16
    54    8.407376083016e-03
    55   -4.564945755361e-15
    56    3.506960996734e-15
    57   -2.206186902512e-02
    58   -1.799165099687e-03
    59    9.239863269707e-16
    60   -8.906450736674e-16
    61   -1.560541751050e-01
    62   -2.233690524236e-16
    63   -3.365507041991e-03
    64    9.705131207529e-15
    65   -4.456860444838e-15
    66   -6.621786485791e-01
    67   -3.418297005954e-16
    68   -2.248017897362e-03
    69   -1.447893383590e-15
    70    2.066038077241e-17
    71   -2.001363938830e-02
    72   -1.692139510603e-16
    73    9.175507450291e-17
    74   -5.412660084889e-17
Sym=X
Ene= 0.577216
Spin=Alpha
Occup=0
     1    2.313044053958e-19
     2    8.003258473836e-18
     3    4.674768019831e-17
     4   -2.351257345932e-16
     5   -1.230748605921e-15
     6   -1.570767466723e-16
     7   -1.104635871979e-15
     8    9.697098493890e-17
     9   -5.773632573779e-17
    10   -3.667809500269e-16
    11    1.346505607225e-17
    12    2.343549308500e-16
    13    1.189596184060e-15
    14    4.252082165511e-17
    15    1.391094083939e-15
    16    6.095961726363e-15
    17   -8.766139586774e-16
    18   -2.652945491860e-15
    19   -9.074410303654e-15
    20    8.087137482184e-16
    21    4.257068551375e-16
    22   -2.271851777952e-16
    23   -4.195031046349e-16
    24    7.365719692804e-16
    25   -1.561652509886e-01
    26   -1.730369661436e-16
    27   -1.454112417893e-15
    28   -1.726515168095e-15
    29    1.093814600636e-15
    30   -6.622846618267e-01
    31    6.910004253772e-18
    32    5.004674193950e-17
    33    9.927666563014e-17
    34    2.801944338601e-16
    35    1.996444996323e-02
    36   -2.633963000518e-17
    37    1.908247512347e-16
    38    1.780711340671e-17
    39   -5.449183634663e-18
    40   -4.003902635348e-18
    41    1.149465930505e-16
    42    7.568643864399e-17
    43    2.336927970231e-16
    44    3.118920469845e-16
    45   -1.933453517224e-16
    46   -8.294238662840e-17
    47    6.415189203269e-17
    48   -1.400686136037e-16
    49    4.044607958359e-16
    50    1.063648012900e-16
    51    4.371481626503e-16
    52   -2.801748219159e-15
    53   -2.973833927644e-15
    54    8.032286552856e-16
    55    4.390570412547e-15
    56    6.708799666795e-15
    57   -2.232558964999e-15
    58    1.458465307091e-16
    59    7.087236040534e-16
    60    9.066716576404e-16
    61   -6.759710179527e-17
    62    1.561652509886e-01
    63    7.736104465786e-16
    64    7.914343815761e-17
    65    1.589923640080e-15
    66    2.030336361111e-16
    67    6.622846618267e-01
    68    1.414467720754e-16
    69   -9.548054664982e-17
    70    2.493711646231e-16
    71   -1.693684535549e-16
    72    1.996444996323e-02
    73   -1.448433585684e-16
    74   -3.311767568181e-16
Sym=X
Ene= 0.776291
Spin=Alpha
Occup=0
     1    5.980029193855e-02
     2    3.390150922593e-02
     3   -4.141062132661e-01
     4    1.883722592412e+00
     5   -3.347773997256e+00
     6    2.789530680130e-17
     7   -2.832992872391e-16
     8   -5.163400073558e-02
     9    6.546902817845e-16
    10   -1.673756459457e-17
    11   -5.048809537658e-02
    12   -1.316213958018e-15
    13    2.934900646847e-16
    14    2.197252964878e-01
    15    4.253797856750e-16
    16    1.819160149211e-16
    17   -2.251182723650e-01
    18   -9.578388379423e-15
    19    7.491291610254e-15
    20   -1.314812016221e+00
    21    7.318677008248e-02
    22   -2.704976685588e-15
    23    2.420454943978e-15
    24   -1.045544359352e-02
    25   -1.250625752639e-17
    26   -9.837763798398e-02
    27   -1.370648675702e-14
    28    1.187348548360e-14
    29   -7.930300823373e-03
    30   -3.727068389343e-17
    31   -1.381479347681e-01
    32    2.213485595553e-16
    33   -3.082353551270e-17
    34   -9.931135342910e-04
    35   -2.086181542634e-16
    36    1.841432385767e-16
    37   -1.772723393281e-16
    38   -5.980029193858e-02
    39   -3.390150922595e-02
    40    4.141062132664e-01
    41   -1.883722592413e+00
    42    3.347773997256e+00
    43   -2.988219207356e-16
    44    4.670988845264e-16
    45   -5.163400073561e-02
    46   -3.826235695353e-17
    47    4.297623386738e-16
    48   -5.048809537656e-02
    49    4.340707384720e-16
    50   -1.109869751514e-15
    51    2.197252964877e-01
    52    8.115702544272e-16
    53   -1.853916196593e-15
    54   -2.251182723643e-01
    55    8.776751095004e-15
    56   -5.418955819719e-15
    57   -1.314812016222e+00
    58   -7.318677008230e-02
    59   -2.582011412713e-15
    60    2.190770986895e-15
    61    1.045544359353e-02
    62    3.633915180354e-16
    63    9.837763798454e-02
    64   -1.418874599094e-14
    65    1.239774308676e-14
    66    7.930300823366e-03
    67    2.322726072796e-16
    68   -1.381479347681e-01
    69   -2.762582163335e-16
    70    4.744925207632e-16
    71   -9.931135342903e-04
    72   -3.476648052909e-16
    73    9.997520192852e-17
    74   -9.956579894737e-17
Sym=X
Ene= 0.796781
Spin=Alpha
Occup=0
     1    4.330384882006e-02
     2    2.305083954305e-02
     3   -3.008198229920e-01
     4    1.167715069778e+00
     5   -6.048633086648e-01
     6   -2.443356561908e-16
     7    5.865387468632e-16
     8   -2.622401316508e-02
     9   -4.579919884762e-16
    10    4.447002967811e-16
    11    1.234094249123e-02
    12    5.362830873268e-16
    13   -1.671663068502e-15
    14   -8.557824499323e-02
    15    1.979093038391e-15
    16   -6.561879529875e-16
    17    6.508753368339e-01
    18    9.927175101381e-15
    19   -1.431602009284e-14
    20   -6.868430203276e-01
    21   -1.986121516903e-01
    22    4.759072666431e-15
    23   -4.807317792636e-15
    24   -7.439563271083e-03
    25   -3.827017419382e-16
    26   -5.112765986081e-01
    27    1.822857886142e-14
    28   -2.281949103327e-14
    29    4.951737761508e-03
    30   -1.197928479878e-15
    31    3.141361759864e-02
    32   -1.185948392977e-15
    33    5.697116996674e-16
    34    7.958041454596e-04
    35    8.398325480463e-16
    36   -3.997633067088e-17
    37    6.161095388527e-16
    38    4.330384882000e-02
    39    2.305083954302e-02
    40   -3.008198229916e-01
    41    1.167715069776e+00
    42   -6.048633086619e-01
    43    3.010704092962e-16
    44   -4.853713153380e-16
    45    2.622401316503e-02
    46    1.163059551295e-16
    47   -6.707136338085e-17
    48   -1.234094249128e-02
    49   -3.121444318655e-16
    50    1.028040330765e-16
    51    8.557824499342e-02
    52   -1.019168283780e-15
    53    1.631649155171e-15
    54   -6.508753368339e-01
    55   -1.102877849628e-14
    56    1.430606154341e-14
    57    6.868430203265e-01
    58   -1.986121516903e-01
    59    3.880993839172e-15
    60   -4.533530954032e-15
    61   -7.439563271072e-03
    62   -4.049473690463e-16
    63   -5.112765986082e-01
    64    1.779899865412e-14
    65   -2.265525500278e-14
    66    4.951737761510e-03
    67    2.919800523956e-16
    68   -3.141361759875e-02
    69    7.398489284346e-16
    70   -9.425653171639e-16
    71   -7.958041454616e-04
    72   -2.406534798744e-16
    73    5.944920470626e-16
    74   -6.825655601393e-16
Sym=X
Ene= 0.802144
Spin=Alpha
Occup=0
     1    2.609462758235e-16
     2    1.006721354744e-16
     3   -1.717592630303e-15
     4    1.615364064155e-15
     5    3.882814941445e-14
     6   -2.172340639361e-09
     7   -2.323341051624e-02
     8    1.314319470171e-16
     9   -8.243168524019e-10
    10   -1.509220972320e-02
    11    1.195012080303e-15
    12    1.294370292397e-09
    13    5.316287658067e-02
    14   -6.382652655196e-15
    15    1.150820135578e-08
    16    2.162426649040e-02
    17    2.239889492841e-14
    18   -2.167368740928e-08
    19    5.839778514355e-01
    20    3.688410863536e-15
    21   -6.102950347069e-15
    22   -7.057155472010e-09
    23    1.889203739605e-01
    24    7.639936262295e-16
    25   -1.522387262636e-16
    26   -8.668555118174e-15
    27   -3.155394147735e-08
    28    9.174647512817e-01
    29    3.028271604086e-15
    30    1.217975883011e-15
    31    2.150196538406e-15
    32    1.269004804310e-09
    33   -3.637039685778e-02
    34   -4.804429338874e-16
    35    5.352704408130e-16
    36   -4.769724510397e-10
    37   -6.698382934967e-04
    38    1.881588301543e-15
    39    9.486177425656e-16
    40   -1.306960519971e-14
    41    5.582450540954e-14
    42   -6.743421618252e-14
    43    2.172340236171e-09
    44    2.323341051624e-02
    45    1.505135668045e-15
    46    8.243166887624e-10
    47    1.509220972320e-02
    48    5.021376799016e-16
    49   -1.294369431690e-09
    50   -5.316287658066e-02
    51   -1.604314110065e-15
    52   -1.150820022042e-08
    53   -2.162426649040e-02
    54   -1.207060881027e-14
    55    2.167368500468e-08
    56   -5.839778514355e-01
    57    4.024864269899e-14
    58   -3.700664625020e-15
    59   -7.057153222218e-09
    60    1.889203739605e-01
    61   -1.541066537508e-15
    62   -4.581268445006e-16
    63   -1.734193280187e-14
    64   -3.155394548936e-08
    65    9.174647512817e-01
    66   -2.390551907000e-15
    67    1.581509854826e-16
    68    9.032263090533e-16
    69   -1.269007619083e-09
    70    3.637039685778e-02
    71   -1.605711965312e-15
    72    1.362018279968e-15
    73    4.769714008081e-10
    74    6.698382934964e-04
Sym=X
Ene= 0.823575
Spin=Alpha
Occup=0
     1    5.443172891653e-18
     2    7.754102067670e-17
     3   -1.227317427623e-16
     4    6.395746303276e-15
     5   -4.852407244793e-14
     6   -2.166755495436e-02
     7    3.319358798624e-10
     8   -8.907280576090e-16
     9   -1.448081683872e-02
    10    3.558384320776e-10
    11   -1.644549311280e-15
    12    5.234605492917e-02
    13   -1.055680241381e-09
    14    8.405985614296e-15
    15    1.428894488479e-02
    16    1.248097572521e-09
    17   -2.108747615541e-14
    18    5.837894315092e-01
    19    9.730039668082e-09
    20   -1.164926501164e-14
    21    5.588798265342e-15
    22    1.895800894148e-01
    23    7.049702710432e-09
    24   -2.708755668606e-15
    25   -8.265528110943e-17
    26    5.453018307618e-15
    27    9.172586220784e-01
    28    3.149190044421e-08
    29   -4.616548985817e-15
    30   -4.371046101720e-17
    31   -1.801804742928e-15
    32   -3.624889630578e-02
    33   -1.366583819067e-09
    34    1.907594453304e-15
    35    2.608977611315e-16
    36   -6.177435183767e-04
    37    2.566791483560e-10
    38   -1.838725630175e-15
    39   -1.040019701342e-15
    40    1.280969430591e-14
    41   -5.563030657054e-14
    42    7.466476402212e-14
    43    2.166755495436e-02
    44   -3.319358844169e-10
    45   -1.890122278170e-15
    46    1.448081683872e-02
    47   -3.558385832263e-10
    48   -1.327866733352e-15
    49   -5.234605492917e-02
    50    1.055681068713e-09
    51    5.284513050002e-15
    52   -1.428894488479e-02
    53   -1.248099510968e-09
    54    5.096398945034e-15
    55   -5.837894315092e-01
    56   -9.730039031412e-09
    57   -3.911273531365e-14
    58    2.394160892312e-15
    59    1.895800894148e-01
    60    7.049702983461e-09
    61    2.588991222858e-15
    62    2.780249047047e-16
    63    1.631871658995e-14
    64    9.172586220784e-01
    65    3.149189825834e-08
    66    5.274903361938e-15
    67    3.505470564577e-16
    68   -2.020851210279e-16
    69    3.624889630578e-02
    70    1.366583462665e-09
    71    2.242283803199e-15
    72    8.947821617567e-17
    73    6.177435183779e-04
    74   -2.566793811485e-10
Sym=X
Ene= 1.093159
Spin=Alpha
Occup=0
     1   -1.690792213038e-02
     2   -1.830421470541e-04
     3    1.323777502860e-01
     4   -1.592696603483e+00
     5    5.693799309097e+00
     6    1.168528877137e-16
     7    9.788802335146e-17
     8   -1.427208478665e-01
     9    7.450217274083e-16
    10   -1.175823978673e-17
    11   -1.987039028793e-02
    12   -2.367214955778e-15
    13   -2.274278297335e-16
    14   -7.987343471328e-02
    15    1.834317974621e-15
    16   -3.125697829815e-16
    17    2.044921008028e+00
    18   -5.568140728461e-16
    19   -1.356787523504e-15
    20    2.123345842512e+00
    21    4.577322323611e-02
    22    1.002929025893e-15
    23   -1.098424416045e-16
    24    4.036341693654e-03
    25    5.884603961047e-16
    26    1.867362379264e+00
    27   -9.592096920018e-17
    28   -2.199489071791e-15
    29   -6.683924971521e-03
    30   -8.832183084930e-16
    31    1.373545123050e-01
    32   -2.741681982788e-16
    33   -4.218827164871e-16
    34   -3.146363227838e-03
    35   -1.359785294105e-16
    36   -1.399802300610e-16
    37   -1.503837771102e-16
    38    1.690792213038e-02
    39    1.830421470437e-04
    40   -1.323777502860e-01
    41    1.592696603483e+00
    42   -5.693799309097e+00
    43   -1.991139064773e-16
    44    6.299593145144e-17
    45   -1.427208478665e-01
    46    6.599043283814e-16
    47    4.799371684713e-16
    48   -1.987039028793e-02
    49   -7.911998075790e-16
    50   -1.728752422905e-15
    51   -7.987343471329e-02
    52    1.480619832106e-16
    53    1.737045421611e-15
    54    2.044921008027e+00
    55    1.686996355315e-16
    56    1.189784407204e-15
    57    2.123345842512e+00
    58   -4.577322323607e-02
    59    1.239407704942e-15
    60    8.741682366373e-17
    61   -4.036341693665e-03
    62   -1.559486885580e-15
    63   -1.867362379264e+00
    64   -6.083561232155e-16
    65   -1.937012273270e-15
    66    6.683924971530e-03
    67    5.655049057927e-16
    68    1.373545123050e-01
    69   -1.209989198917e-16
    70    1.015833078852e-15
    71   -3.146363227838e-03
    72    1.060304794264e-15
    73    2.605995187404e-17
    74   -7.868333882107e-16
Sym=X
Ene= 1.569425
Spin=Alpha
Occup=0
     1   -6.517440458275e-04
     2   -3.702765143473e-03
     3    8.047791887389e-04
     4    8.506901960500e-02
     5    1.280792016887e-02
     6    5.887083199232e-17
     7    5.668383613312e-16
     8   -1.662104174757e-02
     9   -3.418253120903e-16
    10    1.333701922036e-15
    11   -5.849903120737e-02
    12   -1.194371427488e-16
    13   -3.692654818941e-15
    14    2.639311569234e-01
    15    8.939642951080e-16
    16    1.907316178759e-15
    17   -2.136473726474e-01
    18   -2.696232908171e-16
    19    3.571590395252e-15
    20    1.831616549446e-02
    21    5.562227159111e-01
    22   -3.298939996604e-15
    23    3.219465210173e-14
    24    2.454714196036e-02
    25   -4.750767411851e-16
    26   -5.492806530105e-01
    27    3.809313511762e-15
    28   -2.321279281108e-14
    29   -2.152779816957e-02
    30    1.721382290516e-15
    31    4.129537494345e-01
    32   -3.597186933180e-15
    33    2.384720109063e-14
    34    3.924696638338e-02
    35   -5.851896227209e-15
    36   -7.109832483434e-16
    37    3.623957747110e-17
    38   -6.517440458291e-04
    39   -3.702765143473e-03
    40    8.047791887504e-04
    41    8.506901960498e-02
    42    1.280792016876e-02
    43    2.626355272518e-16
    44    9.717811223206e-16
    45    1.662104174758e-02
    46    4.591131133794e-16
    47    7.059376909334e-16
    48    5.849903120737e-02
    49   -2.825694275201e-15
    50   -2.776549064331e-15
    51   -2.639311569234e-01
    52    3.698497091045e-15
    53    6.751874466644e-17
    54    2.136473726475e-01
    55   -2.650922533219e-15
    56    1.678684277221e-15
    57   -1.831616549443e-02
    58    5.562227159111e-01
    59    6.477778094082e-15
    60   -3.458351529082e-14
    61    2.454714196036e-02
    62    2.424987239630e-15
    63   -5.492806530106e-01
    64   -3.954345720591e-15
    65    2.966689796114e-14
    66   -2.152779816957e-02
    67   -1.007012749483e-15
    68   -4.129537494345e-01
    69   -6.617600893325e-15
    70    1.982401314581e-14
    71   -3.924696638337e-02
    72    6.748236167711e-15
    73   -5.583515344804e-15
    74    3.058087838402e-15
[5D7F]

======= END OF MOLDEN-FORMATTED INPUT FILE =======


        *************************************************************
        *                                                           *
        *  Thank you very much for using Q-Chem.  Have a nice day.  *
        *                                                           *
        *************************************************************


