                  Welcome to Q-Chem
     A Quantum Leap Into The Future Of Chemistry


 Q-Chem 6.0 (devel), Q-Chem, Inc., Pleasanton, CA (2022)

 E. Epifanovsky,  A. T. B. Gilbert,  Xintian Feng,  Joonho Lee,  Yuezhi Mao,  
 N. Mardirossian,  P. Pokhilko,  A. White,  M. Wormit,  M. P. Coons,  
 A. L. Dempwolff,  Zhengting Gan,  D. Hait,  P. R. Horn,  L. D. Jacobson,  
 I. Kaliman,  J. Kussmann,  A. W. Lange,  Ka Un Lao,  D. S. Levine,  Jie Liu,  
 S. C. McKenzie,  A. F. Morrison,  K. Nanda,  F. Plasser,  D. R. Rehn,  
 M. L. Vidal,  Zhi-Qiang You,  Ying Zhu,  B. Alam,  B. Albrecht,  
 A. Aldossary,  E. Alguire,  J. H. Andersen,  V. Athavale,  D. Barton,  
 K. Begam,  A. Behn,  N. Bellonzi,  Y. A. Bernard,  E. J. Berquist,  
 H. Burton,  A. Carreras,  K. Carter-Fenk,  Romit Chakraborty,  
 Chandrima Chakravarty,  Junhan Chen,  A. D. Chien,  K. D. Closser,  
 V. Cofer-Shabica,  L. Cunha,  S. Dasgupta,  Jia Deng,  M. de Wergifosse,  
 M. Diedenhofen,  Hainam Do,  S. Ehlert,  Po-Tung Fang,  S. Fatehi,  
 Qingguo Feng,  T. Friedhoff,  B. Ganoe,  J. Gayvert,  Qinghui Ge,  
 G. Gidofalvi,  M. Goldey,  J. Gomes,  C. Gonzalez-Espinoza,  S. Gulania,  
 A. Gunina,  J. A. Gyamfi,  M. W. D. Hanson-Heine,  P. H. P. Harbach,  
 A. W. Hauser,  M. F. Herbst,  M. Hernandez Vera,  M. Hodecker,  
 Z. C. Holden,  S. Houck,  Xunkun Huang,  Kerwin Hui,  B. C. Huynh,  
 K. Ikeda,  M. Ivanov,  Hyunjun Ji,  Zuxin Jin,  Hanjie Jiang,  B. Kaduk,  
 S. Kaehler,  R. Kang,  K. Khistyaev,  Jaehoon Kim,  Yongbin Kim,  
 P. Klunzinger,  Z. Koczor-Benda,  Joong Hoon Koh,  D. Kosenkov,  
 Saikiran Kotaru,  L. Koulias,  T. Kowalczyk,  C. M. Krauter,  K. Kue,  
 A. Kunitsa,  T. Kus,  A. Landau,  K. V. Lawler,  D. Lefrancois,  S. Lehtola,  
 Rain Li,  Shaozhi Li,  Yi-Pei Li,  Jiashu Liang,  M. Liebenthal,  
 Hung-Hsuan Lin,  You-Sheng Lin,  Fenglai Liu,  Kuan-Yu Liu,  
 M. Loipersberger,  A. Luenser,  C. Malbon,  A. Manjanath,  P. Manohar,  
 E. Mansoor,  S. F. Manzer,  Shan-Ping Mao,  A. V. Marenich,  T. Markovich,  
 S. Mason,  F. Matz,  S. A. Maurer,  P. F. McLaughlin,  M. F. S. J. Menger,  
 J.-M. Mewes,  S. A. Mewes,  P. Morgante,  Mohammad Mostafanejad,  
 J. W. Mullinax,  K. J. Oosterbaan,  G. Paran,  V. Parravicini,  
 Alexander C. Paul,  Suranjan K. Paul,  F. Pavosevic,  Zheng Pei,  S. Prager,  
 E. I. Proynov,  E. Ramos,  B. Rana,  A. E. Rask,  A. Rettig,  R. M. Richard,  
 F. Rob,  E. Rossomme,  T. Scheele,  M. Scheurer,  M. Schneider,  
 P. E. Schneider,  N. Sergueev,  S. M. Sharada,  Hengyuan Shen,  
 W. Skomorowski,  D. W. Small,  C. J. Stein,  Yingli Su,  Yu-Chuan Su,  
 E. J. Sundstrom,  Zhen Tao,  J. Thirman,  Hung-Yi Tsai,  T. Tsuchimochi,  
 N. M. Tubman,  C. Utku,  S. P. Veccham,  O. Vydrov,  J. Wenzel,  
 Jonathan Wong,  J. Witte,  A. Yamada,  Chou-Hsun Yang,  Kun Yao,  
 S. Yeganeh,  S. R. Yost,  A. Zech,  F. Zeller,  Igor Ying Zhang,  
 Xing Zhang,  Yu Zhang,  D. Zuev,  A. Aspuru-Guzik,  A. T. Bell,  
 N. A. Besley,  K. B. Bravaya,  B. R. Brooks,  D. Casanova,  Jeng-Da Chai,  
 Hsing-Ta Chen,  S. Coriani,  C. J. Cramer,  A. E. DePrince, III,  
 R. A. DiStasio Jr.,  A. Dreuw,  B. D. Dunietz,  T. R. Furlani,  
 W. A. Goddard III,  S. Grimme,  S. Hammes-Schiffer,  T. Head-Gordon,  
 W. J. Hehre,  Chao-Ping Hsu,  T.-C. Jagau,  Yousung Jung,  A. Klamt,  
 Jing Kong,  D. S. Lambrecht,  Xiangyuan Li,  WanZhen Liang,  N. J. Mayhall,  
 C. W. McCurdy,  J. B. Neaton,  T. Neudecker,  C. Ochsenfeld,  
 J. A. Parkhill,  R. Peverati,  V. A. Rassolov,  Haisheng Ren,  Yihan Shao,  
 L. V. Slipchenko,  R. P. Steele,  J. E. Subotnik,  A. J. W. Thom,  
 A. Tkatchenko,  D. G. Truhlar,  T. Van Voorhis,  Fan Wang,  
 T. A. Wesolowski,  K. B. Whaley,  H. L. Woodcock III,  P. M. Zimmerman,  
 S. Faraji,  P. M. W. Gill,  M. Head-Gordon,  J. M. Herbert,  A. I. Krylov

 Contributors to earlier versions of Q-Chem not listed above: 
 R. D. Adamson,  B. Austin,  R. Baer,  J. Baker,  G. J. O. Beran,  
 K. Brandhorst,  S. T. Brown,  E. F. C. Byrd,  Arup K. Chakraborty,  
 G. K. L. Chan,  Chun-Min Chang,  Yunqing Chen,  C.-L. Cheng,  
 Siu Hung Chien,  D. M. Chipman,  D. L. Crittenden,  H. Dachsel,  
 R. J. Doerksen,  A. D. Dutoi,  R. G. Edgar,  J. Fosso-Tande,  
 L. Fusti-Molnar,  D. Ghosh,  A. Ghysels,  A. Golubeva-Zadorozhnaya,  
 J. Gonthier,  M. S. Gordon,  S. R. Gwaltney,  G. Hawkins,  J. E. Herr,  
 A. Heyden,  S. Hirata,  E. G. Hohenstein,  G. Kedziora,  F. J. Keil,  
 C. Kelley,  Jihan Kim,  R. A. King,  R. Z. Khaliullin,  P. P. Korambath,  
 W. Kurlancheek,  A. Laurent,  A. M. Lee,  M. S. Lee,  S. V. Levchenko,  
 Ching Yeh Lin,  D. Liotard,  E. Livshits,  R. C. Lochan,  I. Lotan,  
 L. A. Martinez-Martinez,  P. E. Maslen,  N. Nair,  D. P. O'Neill,  
 D. Neuhauser,  E. Neuscamman,  C. M. Oana,  R. Olivares-Amaya,  R. Olson,  
 T. M. Perrine,  B. Peters,  P. A. Pieniazek,  A. Prociuk,  Y. M. Rhee,  
 J. Ritchie,  M. A. Rohrdanz,  E. Rosta,  N. J. Russ,  H. F. Schaefer III,  
 M. W. Schmidt,  N. E. Schultz,  S. Sharma,  N. Shenvi,  C. D. Sherrill,  
 A. C. Simmonett,  A. Sodt,  T. Stein,  D. Stuck,  K. S. Thanthiriwatte,  
 V. Vanovschi,  L. Vogt,  Tao Wang,  A. Warshel,  M. A. Watson,  
 C. F. Williams,  Q. Wu,  X. Xu,  Jun Yang,  W. Zhang,  Yan Zhao

   Please cite Q-Chem as follows:
  "Software for the frontiers of quantum chemistry:
   An overview of developments in the Q-Chem 5 package"
   J. Chem. Phys. 155, 084801 (2021)
   https://doi.org/10.1063/5.0055522 (open access)

 Q-Chem 6.0.1 for Intel X86 EM64T Linux

 Parts of Q-Chem use Armadillo 9.900.5 (Nocturnal Misbehaviour).
 http://arma.sourceforge.net/

 Q-Chem begins on Mon Dec  4 19:49:03 2023  

 Host: atlas-188
0

     Scratch files written to ./qchem165174//
 Processing $rem in /scratch/abel/SOFTWARE/qchem/config/preferences:
 Processing $rem in /dipc/acebg/.qchemrc:

 Checking the input file for inconsistencies... 	...done.

--------------------------------------------------------------
User input:
--------------------------------------------------------------
$comment
 TD-DFT/TDA CALCULATION
$end

$molecule
 READ benzophenone.molecule
$end

$rem
!**REFERENCE***     
JOBTYPE            SP
EXCHANGE           GEN   !gen:specify in $xc_functional
CORRELATION        NONE
BASIS              def2-TZVP 
BASIS2             STO-3G

!***SCF REFERENCE***
INPUT_BOHR          TRUE
!SKIP_SCFMAN        FALSE
!UNRESTRICTED       FALSE !rectricted-TDDFT not avail in doublets
!SCF_GUESS          core
!SCF_GUESS_MIX      FALSE
!SCF_GUESS_ALWAYS   FALSE
MAX_SCF_CYCLES     999
!SCF_CONVERGENCE    10
SCF_ALGORITHM      DIIS_GDM !DIIS,DM,DIIS_DM,GDM,DIIS_GDM,GD

!SYMMETRY           TRUE !use of symmetry for calculating integrals
!SYM_IGNORE         FALSE !turn off using symmetry
!SYM_TOL            5 !tolerance for determining point group

!THRESH             14
!SCF_FINAL_PRINT    2 !0,1,2,3

!****CIS****
CIS_N_ROOTS        50
!CIS_CONVERGENCE   10
MAX_CIS_CYCLES     200
!CIS_SINGLETS      true
!CIS_TRIPLETS      true
CALC_SOC           2 !not available in doublets in TDDFT
!RPA                FALSE !RPA=1 TDA calc used as guess of TDDFT

!Spin-orbit coupling calculations are implemented for
!restricted, unrestricted CIS/TDDFT, and SF TDDFT
!using Wigner-Eckart theorem: Try CALC_SOC = 2.

!****MEMORY****
!MEM_TOTAL          80000        !Default 2000 MB
!MEM_STATIC         25000         !Default 64 MB

!**Molecular Properties and Analysis **
!POP_MULLIKEN       FALSE   !Run Mulliken population analysis
!LOWDIN_POPULATION  FALSE  !Run Löwdin population analysis
!GUI                0
!STATE_ANALYSIS     TRUE
!MOLDEN_FORMAT      FALSE
!PRINT_ORBITALS     5
$end

$xc_functional
!**50-50 functional**
X  HF    0.50
X  S     0.08
X  B     0.42
C  VWN   0.19
C  LYP   0.81
$end

--------------------------------------------------------------
 ----------------------------------------------------------------
             Standard Nuclear Orientation (Bohr)
    I     Atom           X                Y                Z
 ----------------------------------------------------------------
    1      C       0.0000000000    -0.0000000000     1.7616000772
    2      O       0.0000000000    -0.0000000000     4.2626453788
    3      C      -2.4515146503    -0.0331342717     0.5854026033
    4      C       2.4515146503     0.0331342717     0.5854026033
    5      C       2.8430013288     1.0880866231    -1.8463666677
    6      C       4.5970400963    -0.8671930082     1.9264083375
    7      C       6.9748613791    -0.7928839619     0.8403562343
    8      C       5.2262074578     1.1225172668    -2.9109015756
    9      C       7.3157580598     0.1834271136    -1.5850434514
   10      H       1.2649900922     1.9042492020    -2.8578536668
   11      H       4.3392930822    -1.6659511958     3.7896568207
   12      H       5.4817259580     1.9198549006    -4.7799236178
   13      H       8.5807201718    -1.5192143035     1.8831820792
   14      H       9.1788078092     0.2325165625    -2.4295762444
   15      C      -2.8430013288    -1.0880866231    -1.8463666677
   16      C      -4.5970400963     0.8671930082     1.9264083375
   17      C      -5.2262074578    -1.1225172668    -2.9109015756
   18      C      -6.9748613791     0.7928839619     0.8403562343
   19      C      -7.3157580598    -0.1834271136    -1.5850434514
   20      H      -1.2649900922    -1.9042492020    -2.8578536668
   21      H      -5.4817259580    -1.9198549006    -4.7799236178
   22      H      -4.3392930822     1.6659511958     3.7896568207
   23      H      -8.5807201718     1.5192143035     1.8831820792
   24      H      -9.1788078092    -0.2325165625    -2.4295762444
 ----------------------------------------------------------------
 Molecular Point Group                 C2    NOp =  2
 Largest Abelian Subgroup              C2    NOp =  2
 Nuclear Repulsion Energy =         772.43069410 hartrees
 There are       49 alpha and       47 beta electrons
 Requested basis set is def2-TZVP
 There are 194 shells and 494 basis functions

 Total QAlloc Memory Limit   2000 MB
 Mega-Array Size       188 MB
 MEM_STATIC part       192 MB

 A cutoff of  1.0D-12 yielded  14989 shell pairs
 There are     96917 function pairs (    125284 Cartesian)
 Smallest overlap matrix eigenvalue = 8.18E-06

 Scale SEOQF with 1.000000e-01/1.000000e+00/1.000000e-01

 Standard Electronic Orientation quadrupole field applied
 Nucleus-field energy     =     0.0000000231 hartrees
 Requested basis set is STO-3G
 There are 38 shells and 80 basis functions
 A cutoff of  1.0D-12 yielded    596 shell pairs
 There are      3014 function pairs
 Smallest overlap matrix eigenvalue = 1.73E-01
 Guess from superposition of atomic densities
 Warning:  Energy on first SCF cycle will be non-variational
 SAD guess density has 96.000000 electrons
 An unrestricted hybrid HF-DFT SCF calculation will be
 performed using Pulay DIIS + Geometric Direct Minimization
 Exchange:     0.5000 Hartree-Fock + 0.0800 Slater + 0.4200 B88
 Correlation:  0.1900 VWN5 + 0.8100 LYP
 Using SG-1 standard quadrature grid
 SCF converges when RMS gradient is below 1.0E-04
 ---------------------------------------
  Cycle       Energy         DIIS Error
 ---------------------------------------
    1    -569.2886186951      1.27E-01
    2    -568.6406053349      1.11E-02
    3    -566.2081174352      3.71E-02
    4    -568.7939368033      5.15E-03 Done DIIS. Switching to GDM
    5    -568.8650077770      2.93E-01 Descent step
    6    -568.9715283916      9.97E-02 Normal BFGS step
    7    -568.9929625380      4.61E-02 Normal BFGS step
    8    -568.9979133533      1.74E-02 Normal BFGS step
    9    -568.9996223142      1.38E-02 Normal BFGS step
   10    -569.0003068767      4.96E-03 Normal BFGS step
   11    -569.0007571487      6.25E-03 Normal BFGS step
   12    -569.0010230505      4.74E-03 Normal BFGS step
   13    -569.0011211476      1.20E-03 Normal BFGS step
   14    -569.0011378420      5.12E-04 Normal BFGS step
   15    -569.0011408953      3.06E-04 Normal BFGS step
   16    -569.0011412608      1.56E-04 Normal BFGS step
   17    -569.0011414114      1.54E-04 Normal BFGS step
   18    -569.0011415008      9.71E-05 Convergence criterion met
 ---------------------------------------
 <S^2> = 2.1733
 SCF time:  CPU 10.72 s  wall 11.67 s
 SCF   energy in the small basis set = -569.00114150
 Total energy in the small basis set = -569.00114150
 ----------------------------------------------------
  Cycle       Energy    
 ----------------------------------------------------
    1     -71.5045970464     -7.15E+01
 An unrestricted hybrid HF-DFT SCF calculation will be
 performed using Pulay DIIS + Geometric Direct Minimization
 Exchange:     0.5000 Hartree-Fock + 0.0800 Slater + 0.4200 B88
 Correlation:  0.1900 VWN5 + 0.8100 LYP
 Using SG-1 standard quadrature grid
 SCF converges when RMS gradient is below 1.0E-08
 ---------------------------------------
  Cycle       Energy        RMS Gradient
 ---------------------------------------
    1    -576.2094116217      3.64E-03 Done DIIS. Switching to GDM
    2    -576.3077533486      5.72E-02 Normal BFGS step
    3    -576.3095789802      5.04E-02 Normal BFGS step
    4    -576.3247621314      1.01E-02 Normal BFGS step
    5    -576.3250618130      7.70E-03 Normal BFGS step
    6    -576.3253829286      2.56E-03 Normal BFGS step
    7    -576.3254255652      2.33E-03 Normal BFGS step
    8    -576.3254613086      2.01E-03 Normal BFGS step
    9    -576.3254785697      1.52E-03 Normal BFGS step
   10    -576.3254945906      9.54E-04 Normal BFGS step
   11    -576.3255028005      5.45E-04 Normal BFGS step
   12    -576.3255062686      3.89E-04 Normal BFGS step
   13    -576.3255079814      3.18E-04 Normal BFGS step
   14    -576.3255090864      1.69E-04 Normal BFGS step
   15    -576.3255096238      1.05E-04 Normal BFGS step
   16    -576.3255097687      5.16E-05 Normal BFGS step
   17    -576.3255098082      1.89E-05 Normal BFGS step
   18    -576.3255098126      8.28E-06 Normal BFGS step
   19    -576.3255098135      3.76E-06 Normal BFGS step
   20    -576.3255098136      1.09E-06 Normal BFGS step
   GDM::WARNING energy changes are now smaller than effective accuracy.
   GDM::        calculation will continue, but THRESH should be increased
   GDM::        or SCF_CONVERGENCE decreased.
   GDM::        effective_thresh =   2.990014735804181E-009
   21    -576.3255098136      6.44E-07 Normal BFGS step
   GDM::WARNING energy changes are now smaller than effective accuracy.
   GDM::        calculation will continue, but THRESH should be increased
   GDM::        or SCF_CONVERGENCE decreased.
   GDM::        effective_thresh =   4.760369556877642E-009
   22    -576.3255098134      2.57E-07 Normal BFGS step
   23    -576.3255098135      7.16E-08 Normal BFGS step
   GDM::WARNING energy changes are now smaller than effective accuracy.
   GDM::        calculation will continue, but THRESH should be increased
   GDM::        or SCF_CONVERGENCE decreased.
   GDM::        effective_thresh =   4.760369556877642E-009
   24    -576.3255098134      3.19E-08 Normal BFGS step
   GDM::WARNING energy changes are now smaller than effective accuracy.
   GDM::        calculation will continue, but THRESH should be increased
   GDM::        or SCF_CONVERGENCE decreased.
   GDM::        effective_thresh =   4.760369556877642E-009
   25    -576.3255098128      1.71E-08 Normal BFGS step
   GDM::WARNING energy changes are now smaller than effective accuracy.
   GDM::        calculation will continue, but THRESH should be increased
   GDM::        or SCF_CONVERGENCE decreased.
   GDM::        effective_thresh =   4.760369556877642E-009
   26    -576.3255098126      1.86E-08 Normal BFGS step
   GDM::WARNING energy changes are now smaller than effective accuracy.
   GDM::        calculation will continue, but THRESH should be increased
   GDM::        or SCF_CONVERGENCE decreased.
   GDM::        effective_thresh =   4.760369556877642E-009
   27    -576.3255098116      4.07E-09 Convergence criterion met
 ---------------------------------------
 <S^2> = 2.0971
 SCF time:  CPU 2126.78 s  wall 2165.58 s
 SCF   energy in the final basis set = -576.32550981
 Total energy in the final basis set = -576.32550981
 

 CIS/TDDFT memory preview:
 --------------------------
	NOV = NOa*NVa + NOb*NVb = 42814
	NRoots = 50, max iter = 200, max vectors = 10000
	Size of each subspace vector: 0.33 Mb
	Davidson algorithm may add up to 2 x NOV x NRoots (= 32.7 Mb) per iteration
	Max memory = 6532.9 Mb (worst case scenario)
	Currently available memory = 2000.0 Mb

	In case of problems:
	(a) increase memory (MEM_TOTAL = 6533 can hold 10000 subspace vectors), or
	(b) request fewer states (CIS_N_ROOTS = 15 will fit in current MEM_TOTAL), or
	(c) reduce MAX_CIS_SUBSPACE (= 3061 will fit in current MEM_TOTAL).
	Reducing MAX_CIS_SUBSPACE may hamper convergence.

 Direct TDDFT/TDA calculation will be performed
 Exchange:     0.5000 Hartree-Fock + 0.0800 Slater + 0.4200 B88
 Correlation:  0.1900 VWN5 + 0.8100 LYP
 Using SG-1 standard quadrature grid
 CIS energy converged when residual is below 10e- 6
 ---------------------------------------------------
 Iter    Rts Conv    Rts Left    Ttl Dev     Max Dev
 ---------------------------------------------------
   1         0          50      0.015598    0.001101
   2         0          50      0.005252    0.000367
   3         0          50      0.001910    0.000128
   4         0          50      0.001664    0.000243
   5        14          36      0.000865    0.000161
   6        31          19      0.000343    0.000056
   7        37          13      0.000125    0.000022
   8        40          10      0.000048    0.000007
   9        46           4      0.000023    0.000002
  10        50           0      0.000017    0.000001    Roots Converged
 ---------------------------------------------------
 
 ---------------------------------------------------
         TDDFT/TDA Excitation Energies              
 ---------------------------------------------------

 Excited state   1: excitation energy (eV) =    1.0128
 Total energy for state  1:                  -576.28828958 au
    <S**2>     :  2.0986
    Trans. Mom.: -0.0000 X  -0.0000 Y  -0.1755 Z
    Strength   :     0.0007644902
    D(   37) --> S(    1) amplitude =  0.4526 beta
    D(   41) --> S(    1) amplitude =  0.4775 beta
    D(   43) --> S(    1) amplitude = -0.1767 beta
    D(   44) --> S(    1) amplitude =  0.6593 beta

 Excited state   2: excitation energy (eV) =    2.6592
 Total energy for state  2:                  -576.22778701 au
    <S**2>     :  2.1433
    Trans. Mom.:  0.0474 X  -0.0019 Y   0.0000 Z
    Strength   :     0.0001463564
    S(    2) --> V(    1) amplitude =  0.4456 alpha
    D(   47) --> S(    1) amplitude =  0.8561 beta

 Excited state   3: excitation energy (eV) =    3.1594
 Total energy for state  3:                  -576.20940373 au
    <S**2>     :  2.2341
    Trans. Mom.: -1.7588 X  -0.0796 Y   0.0000 Z
    Strength   :     0.2399182735
    S(    2) --> V(    1) amplitude =  0.8015 alpha
    D(   47) --> S(    1) amplitude = -0.4392 beta
    D(   47) --> S(    2) amplitude =  0.2621 beta

 Excited state   4: excitation energy (eV) =    3.3016
 Total energy for state  4:                  -576.20417682 au
    <S**2>     :  2.1822
    Trans. Mom.:  0.0000 X   0.0000 Y   0.0213 Z
    Strength   :     0.0000365415
    S(    2) --> V(    3) amplitude = -0.2263 alpha
    D(   46) --> S(    1) amplitude =  0.9529 beta

 Excited state   5: excitation energy (eV) =    3.3534
 Total energy for state  5:                  -576.20227332 au
    <S**2>     :  2.1814
    Trans. Mom.:  0.2616 X   0.0430 Y  -0.0000 Z
    Strength   :     0.0057756032
    S(    2) --> V(    2) amplitude = -0.3702 alpha
    D(   45) --> S(    1) amplitude =  0.8939 beta

 Excited state   6: excitation energy (eV) =    3.6366
 Total energy for state  6:                  -576.19186651 au
    <S**2>     :  2.2322
    Trans. Mom.: -0.2676 X   0.1522 Y   0.0000 Z
    Strength   :     0.0084455391
    S(    1) --> V(    3) amplitude = -0.1574 alpha
    S(    2) --> V(    2) amplitude =  0.8637 alpha
    D(   45) --> S(    1) amplitude =  0.4001 beta

 Excited state   7: excitation energy (eV) =    3.7877
 Total energy for state  7:                  -576.18631534 au
    <S**2>     :  2.2797
    Trans. Mom.: -0.0000 X  -0.0000 Y  -0.2411 Z
    Strength   :     0.0053934696
    S(    1) --> V(    2) amplitude = -0.1918 alpha
    S(    2) --> V(    3) amplitude =  0.8911 alpha
    D(   46) --> S(    1) amplitude =  0.2497 beta
    D(   46) --> S(    2) amplitude = -0.2086 beta

 Excited state   8: excitation energy (eV) =    3.9758
 Total energy for state  8:                  -576.17940241 au
    <S**2>     :  2.7083
    Trans. Mom.: -0.0000 X  -0.0000 Y  -0.1436 Z
    Strength   :     0.0020097569
    S(    1) --> V(    1) amplitude = -0.3113 alpha
    S(    2) --> V(    4) amplitude =  0.4514 alpha
    D(   37) --> S(    1) amplitude = -0.2769 beta
    D(   41) --> S(    1) amplitude = -0.1737 beta
    D(   44) --> S(    1) amplitude =  0.4357 beta
    D(   44) --> S(    2) amplitude =  0.4032 beta
    D(   47) --> V(    1) amplitude = -0.2716 beta

 Excited state   9: excitation energy (eV) =    4.2988
 Total energy for state  9:                  -576.16753224 au
    <S**2>     :  2.2247
    Trans. Mom.:  1.0464 X   0.0641 Y   0.0000 Z
    Strength   :     0.1157607620
    S(    2) --> V(    1) amplitude = -0.1561 alpha
    D(   28) --> S(    1) amplitude =  0.2552 beta
    D(   29) --> S(    1) amplitude =  0.3774 beta
    D(   32) --> S(    1) amplitude =  0.2350 beta
    D(   33) --> S(    1) amplitude =  0.3901 beta
    D(   34) --> S(    1) amplitude = -0.2549 beta
    D(   38) --> S(    1) amplitude =  0.2269 beta
    D(   42) --> S(    1) amplitude =  0.4167 beta
    D(   47) --> S(    1) amplitude =  0.2120 beta
    D(   47) --> S(    2) amplitude =  0.2819 beta

 Excited state  10: excitation energy (eV) =    4.3178
 Total energy for state 10:                  -576.16683408 au
    <S**2>     :  2.6927
    Trans. Mom.:  0.0000 X   0.0000 Y  -0.3052 Z
    Strength   :     0.0098503043
    D(   46) --> V(    2) amplitude = -0.2033 alpha
    D(   47) --> V(    3) amplitude =  0.2058 alpha
    S(    1) --> V(    1) amplitude =  0.2089 alpha
    D(   37) --> S(    1) amplitude = -0.4238 beta
    D(   41) --> S(    1) amplitude = -0.2679 beta
    D(   44) --> S(    1) amplitude =  0.5505 beta
    D(   44) --> S(    2) amplitude = -0.2876 beta
    D(   45) --> V(    2) amplitude = -0.1690 beta
    D(   46) --> V(    3) amplitude = -0.1923 beta
    D(   47) --> V(    1) amplitude =  0.1853 beta

 Excited state  11: excitation energy (eV) =    4.3990
 Total energy for state 11:                  -576.16384940 au
    <S**2>     :  2.9112
    Trans. Mom.:  1.4872 X  -0.0305 Y  -0.0000 Z
    Strength   :     0.2384851195
    D(   45) --> V(    1) amplitude = -0.1710 alpha
    D(   46) --> V(    3) amplitude =  0.2287 alpha
    D(   47) --> V(    2) amplitude = -0.2525 alpha
    S(    2) --> V(    1) amplitude = -0.2702 alpha
    D(   29) --> S(    1) amplitude = -0.1737 beta
    D(   33) --> S(    1) amplitude = -0.1619 beta
    D(   42) --> S(    1) amplitude = -0.2019 beta
    D(   44) --> V(    1) amplitude = -0.1937 beta
    D(   45) --> V(    3) amplitude =  0.2743 beta
    D(   46) --> V(    2) amplitude =  0.3113 beta
    D(   47) --> S(    2) amplitude =  0.5539 beta

 Excited state  12: excitation energy (eV) =    4.6497
 Total energy for state 12:                  -576.15463530 au
    <S**2>     :  3.0812
    Trans. Mom.: -0.0000 X  -0.0000 Y  -0.1411 Z
    Strength   :     0.0022684325
    D(   46) --> V(    2) amplitude = -0.2971 alpha
    D(   47) --> V(    3) amplitude =  0.2942 alpha
    S(    2) --> V(    4) amplitude =  0.3486 alpha
    D(   44) --> S(    2) amplitude =  0.2515 beta
    D(   45) --> V(    2) amplitude = -0.3882 beta
    D(   46) --> S(    2) amplitude =  0.5411 beta
    D(   46) --> V(    3) amplitude = -0.2832 beta

 Excited state  13: excitation energy (eV) =    4.7345
 Total energy for state 13:                  -576.15151836 au
    <S**2>     :  2.9079
    Trans. Mom.:  0.9560 X   0.1591 Y  -0.0000 Z
    Strength   :     0.1089546353
    D(   46) --> V(    3) amplitude = -0.2452 alpha
    D(   47) --> V(    1) amplitude =  0.1506 alpha
    D(   47) --> V(    2) amplitude =  0.2928 alpha
    D(   45) --> S(    2) amplitude =  0.6417 beta
    D(   45) --> V(    3) amplitude = -0.1815 beta
    D(   46) --> V(    2) amplitude = -0.3050 beta
    D(   47) --> S(    2) amplitude =  0.4072 beta

 Excited state  14: excitation energy (eV) =    4.8089
 Total energy for state 14:                  -576.14878671 au
    <S**2>     :  3.1769
    Trans. Mom.: -0.6156 X   0.1343 Y  -0.0000 Z
    Strength   :     0.0467796690
    D(   46) --> V(    3) amplitude =  0.2917 alpha
    D(   47) --> V(    1) amplitude =  0.2915 alpha
    D(   47) --> V(    2) amplitude = -0.2967 alpha
    S(    2) --> V(    2) amplitude =  0.1538 alpha
    D(   45) --> S(    2) amplitude =  0.4842 beta
    D(   45) --> V(    3) amplitude =  0.2775 beta
    D(   46) --> V(    1) amplitude = -0.3882 beta
    D(   46) --> V(    2) amplitude =  0.1638 beta
    D(   47) --> S(    2) amplitude = -0.3936 beta

 Excited state  15: excitation energy (eV) =    4.8155
 Total energy for state 15:                  -576.14854421 au
    <S**2>     :  3.0443
    Trans. Mom.:  0.0000 X  -0.0000 Y  -0.4243 Z
    Strength   :     0.0212432005
    D(   46) --> V(    1) amplitude = -0.2856 alpha
    D(   46) --> V(    2) amplitude =  0.2483 alpha
    D(   47) --> V(    3) amplitude = -0.2449 alpha
    S(    2) --> V(    3) amplitude =  0.1968 alpha
    S(    2) --> V(    4) amplitude = -0.1840 alpha
    D(   44) --> S(    2) amplitude = -0.1946 beta
    D(   45) --> V(    1) amplitude = -0.3569 beta
    D(   46) --> S(    2) amplitude =  0.6007 beta
    D(   46) --> V(    3) amplitude =  0.2779 beta
    D(   47) --> V(    1) amplitude =  0.1604 beta

 Excited state  16: excitation energy (eV) =    5.4857
 Total energy for state 16:                  -576.12391572 au
    <S**2>     :  2.6660
    Trans. Mom.:  0.0000 X  -0.0000 Y   0.4380 Z
    Strength   :     0.0257807485
    D(   45) --> V(    4) amplitude =  0.1705 alpha
    D(   46) --> V(    2) amplitude =  0.1836 alpha
    D(   47) --> V(    3) amplitude = -0.1770 alpha
    S(    1) --> V(    1) amplitude =  0.3869 alpha
    S(    2) --> V(    4) amplitude =  0.7033 alpha
    D(   43) --> S(    1) amplitude = -0.1735 beta
    D(   44) --> S(    2) amplitude = -0.2521 beta
    D(   47) --> V(    1) amplitude =  0.2444 beta

 Excited state  17: excitation energy (eV) =    5.5622
 Total energy for state 17:                  -576.12110091 au
    <S**2>     :  3.4333
    Trans. Mom.: -0.0000 X  -0.0000 Y   0.1415 Z
    Strength   :     0.0027268516
    D(   45) --> V(    3) amplitude =  0.1731 alpha
    D(   46) --> V(    1) amplitude = -0.3962 alpha
    D(   47) --> V(    4) amplitude =  0.1764 alpha
    S(    1) --> V(    2) amplitude =  0.2493 alpha
    D(   44) --> S(    2) amplitude = -0.2543 beta
    D(   44) --> V(    3) amplitude =  0.3693 beta
    D(   46) --> S(    2) amplitude = -0.1557 beta
    D(   47) --> V(    1) amplitude = -0.3839 beta
    D(   47) --> V(    2) amplitude =  0.5086 beta

 Excited state  18: excitation energy (eV) =    5.6194
 Total energy for state 18:                  -576.11899897 au
    <S**2>     :  3.4280
    Trans. Mom.:  0.0160 X  -0.0365 Y   0.0000 Z
    Strength   :     0.0002184126
    D(   45) --> V(    2) amplitude =  0.1832 alpha
    D(   46) --> V(    4) amplitude = -0.1947 alpha
    D(   47) --> V(    1) amplitude =  0.4420 alpha
    S(    1) --> V(    3) amplitude =  0.2338 alpha
    S(    2) --> V(    5) amplitude = -0.1701 alpha
    D(   44) --> V(    1) amplitude = -0.2654 beta
    D(   44) --> V(    2) amplitude =  0.3900 beta
    D(   45) --> S(    2) amplitude = -0.2250 beta
    D(   47) --> V(    3) amplitude =  0.5481 beta

 Excited state  19: excitation energy (eV) =    5.6902
 Total energy for state 19:                  -576.11639774 au
    <S**2>     :  2.1915
    Trans. Mom.: -0.2039 X  -0.0692 Y  -0.0000 Z
    Strength   :     0.0064622129
    S(    2) --> V(    5) amplitude =  0.9085 alpha
    S(    2) --> V(    9) amplitude =  0.2650 alpha

 Excited state  20: excitation energy (eV) =    5.7572
 Total energy for state 20:                  -576.11393573 au
    <S**2>     :  2.8482
    Trans. Mom.:  0.0000 X   0.0000 Y  -0.1748 Z
    Strength   :     0.0043110919
    D(   46) --> V(    1) amplitude = -0.1547 alpha
    S(    1) --> V(    1) amplitude =  0.4110 alpha
    D(   41) --> S(    1) amplitude =  0.1923 beta
    D(   41) --> S(    2) amplitude =  0.1828 beta
    D(   43) --> S(    1) amplitude =  0.2234 beta
    D(   44) --> S(    2) amplitude =  0.5729 beta
    D(   44) --> V(    6) amplitude =  0.1913 beta
    D(   47) --> V(    1) amplitude =  0.2511 beta
    D(   47) --> V(    2) amplitude =  0.2802 beta

 Excited state  21: excitation energy (eV) =    5.9836
 Total energy for state 21:                  -576.10561503 au
    <S**2>     :  2.1745
    Trans. Mom.: -0.0000 X   0.0000 Y   0.3833 Z
    Strength   :     0.0215342415
    S(    2) --> V(    4) amplitude =  0.1887 alpha
    S(    2) --> V(    6) amplitude = -0.1836 alpha
    D(   35) --> S(    1) amplitude = -0.1646 beta
    D(   40) --> S(    1) amplitude =  0.1685 beta
    D(   41) --> S(    1) amplitude =  0.3223 beta
    D(   43) --> S(    1) amplitude =  0.7766 beta
    D(   44) --> S(    2) amplitude = -0.2430 beta

 Excited state  22: excitation energy (eV) =    5.9935
 Total energy for state 22:                  -576.10525305 au
    <S**2>     :  3.3394
    Trans. Mom.:  0.5575 X  -0.1167 Y   0.0000 Z
    Strength   :     0.0476344018
    D(   45) --> V(    1) amplitude =  0.4551 alpha
    D(   47) --> V(    1) amplitude =  0.3932 alpha
    S(    1) --> V(    3) amplitude = -0.2015 alpha
    S(    1) --> V(    4) amplitude =  0.3038 alpha
    D(   39) --> S(    2) amplitude = -0.1526 beta
    D(   44) --> V(    1) amplitude =  0.3931 beta
    D(   47) --> S(    2) amplitude =  0.3488 beta
    D(   47) --> V(    6) amplitude =  0.2494 beta

 Excited state  23: excitation energy (eV) =    6.0346
 Total energy for state 23:                  -576.10374347 au
    <S**2>     :  2.6212
    Trans. Mom.: -0.0000 X  -0.0000 Y  -0.1689 Z
    Strength   :     0.0042173444
    D(   45) --> V(    3) amplitude =  0.1726 alpha
    D(   46) --> V(    1) amplitude =  0.4174 alpha
    D(   47) --> V(    4) amplitude = -0.1533 alpha
    S(    1) --> V(    2) amplitude =  0.3176 alpha
    S(    2) --> V(    6) amplitude =  0.7004 alpha
    S(    2) --> V(   10) amplitude = -0.1519 alpha
    D(   43) --> S(    1) amplitude =  0.1513 beta

 Excited state  24: excitation energy (eV) =    6.0808
 Total energy for state 24:                  -576.10204590 au
    <S**2>     :  3.3217
    Trans. Mom.:  0.0587 X  -0.1462 Y   0.0000 Z
    Strength   :     0.0036987089
    D(   45) --> V(    1) amplitude = -0.2558 alpha
    D(   45) --> V(    2) amplitude = -0.3411 alpha
    D(   46) --> V(    4) amplitude = -0.1685 alpha
    D(   47) --> V(    1) amplitude =  0.4796 alpha
    S(    1) --> V(    3) amplitude = -0.4699 alpha
    S(    2) --> V(    2) amplitude = -0.1557 alpha
    D(   44) --> V(    1) amplitude = -0.1571 beta
    D(   44) --> V(    2) amplitude = -0.2304 beta
    D(   45) --> S(    2) amplitude = -0.2002 beta
    D(   47) --> V(    3) amplitude = -0.1799 beta

 Excited state  25: excitation energy (eV) =    6.1019
 Total energy for state 25:                  -576.10126733 au
    <S**2>     :  2.8057
    Trans. Mom.: -0.0000 X   0.0000 Y   0.2482 Z
    Strength   :     0.0092081696
    D(   45) --> V(    3) amplitude = -0.2553 alpha
    D(   46) --> V(    1) amplitude = -0.4360 alpha
    S(    1) --> V(    2) amplitude = -0.4192 alpha
    S(    2) --> V(    6) amplitude =  0.6231 alpha
    D(   46) --> S(    2) amplitude = -0.1809 beta

 Excited state  26: excitation energy (eV) =    6.2543
 Total energy for state 26:                  -576.09566668 au
    <S**2>     :  2.1587
    Trans. Mom.: -0.0000 X  -0.0000 Y   0.0542 Z
    Strength   :     0.0004498346
    S(    1) --> V(    2) amplitude = -0.1565 alpha
    D(   30) --> S(    1) amplitude =  0.1644 beta
    D(   40) --> S(    1) amplitude =  0.7858 beta
    D(   41) --> S(    1) amplitude =  0.2095 beta
    D(   43) --> S(    1) amplitude = -0.3657 beta

 Excited state  27: excitation energy (eV) =    6.3230
 Total energy for state 27:                  -576.09314246 au
    <S**2>     :  2.1730
    Trans. Mom.:  0.0510 X  -0.0248 Y   0.0000 Z
    Strength   :     0.0004972865
    D(   28) --> S(    1) amplitude = -0.1528 beta
    D(   29) --> S(    1) amplitude = -0.2339 beta
    D(   33) --> S(    1) amplitude = -0.2628 beta
    D(   38) --> S(    1) amplitude = -0.2527 beta
    D(   39) --> S(    1) amplitude = -0.1759 beta
    D(   42) --> S(    1) amplitude =  0.8252 beta
    D(   42) --> S(    2) amplitude =  0.1584 beta

 Excited state  28: excitation energy (eV) =    6.4624
 Total energy for state 28:                  -576.08802102 au
    <S**2>     :  2.1754
    Trans. Mom.:  0.1459 X   0.0487 Y   0.0000 Z
    Strength   :     0.0037470455
    S(    2) --> V(    7) amplitude =  0.9068 alpha
    S(    2) --> V(    9) amplitude =  0.1604 alpha
    S(    2) --> V(   11) amplitude = -0.2255 alpha

 Excited state  29: excitation energy (eV) =    6.4731
 Total energy for state 29:                  -576.08762739 au
    <S**2>     :  2.5202
    Trans. Mom.:  0.3662 X   0.1000 Y   0.0000 Z
    Strength   :     0.0228520341
    D(   45) --> V(    2) amplitude = -0.1631 alpha
    S(    1) --> V(    3) amplitude = -0.2437 alpha
    D(   44) --> V(    2) amplitude =  0.1848 beta
    D(   45) --> S(    2) amplitude =  0.3992 beta
    D(   45) --> V(    6) amplitude =  0.2177 beta
    D(   46) --> V(    1) amplitude =  0.6675 beta
    D(   46) --> V(    2) amplitude =  0.2095 beta
    D(   47) --> V(    3) amplitude =  0.2668 beta

 Excited state  30: excitation energy (eV) =    6.4861
 Total energy for state 30:                  -576.08715028 au
    <S**2>     :  2.5760
    Trans. Mom.:  0.0000 X   0.0000 Y  -0.3632 Z
    Strength   :     0.0209588029
    S(    1) --> V(    2) amplitude = -0.2813 alpha
    D(   40) --> S(    1) amplitude = -0.1582 beta
    D(   45) --> V(    1) amplitude =  0.6185 beta
    D(   45) --> V(    2) amplitude =  0.3099 beta
    D(   46) --> S(    2) amplitude =  0.4007 beta
    D(   46) --> V(    6) amplitude =  0.2346 beta
    D(   47) --> V(    1) amplitude = -0.2321 beta
    D(   47) --> V(    2) amplitude =  0.2270 beta

 Excited state  31: excitation energy (eV) =    6.5376
 Total energy for state 31:                  -576.08525905 au
    <S**2>     :  2.1995
    Trans. Mom.: -0.1792 X  -0.0473 Y   0.0000 Z
    Strength   :     0.0054993674
    S(    2) --> V(    5) amplitude = -0.3014 alpha
    S(    2) --> V(    7) amplitude = -0.1994 alpha
    S(    2) --> V(    9) amplitude =  0.7682 alpha
    S(    2) --> V(   11) amplitude = -0.3436 alpha
    S(    2) --> V(   13) amplitude =  0.1655 alpha
    S(    2) --> V(   15) amplitude =  0.1512 alpha

 Excited state  32: excitation energy (eV) =    6.5460
 Total energy for state 32:                  -576.08494695 au
    <S**2>     :  2.1020
    Trans. Mom.:  0.0000 X   0.0000 Y  -0.0295 Z
    Strength   :     0.0001394663
    D(   46) --> V(    2) amplitude =  0.2622 alpha
    D(   47) --> V(    3) amplitude = -0.2386 alpha
    S(    1) --> V(    1) amplitude = -0.4857 alpha
    D(   40) --> S(    1) amplitude = -0.2743 beta
    D(   45) --> V(    1) amplitude =  0.2067 beta
    D(   45) --> V(    2) amplitude = -0.2176 beta
    D(   46) --> V(    3) amplitude = -0.2224 beta
    D(   47) --> V(    1) amplitude =  0.5242 beta
    D(   47) --> V(    2) amplitude =  0.2497 beta

 Excited state  33: excitation energy (eV) =    6.6789
 Total energy for state 33:                  -576.08006610 au
    <S**2>     :  2.1662
    Trans. Mom.: -0.0000 X   0.0000 Y  -0.0053 Z
    Strength   :     0.0000046044
    S(    2) --> V(    8) amplitude =  0.8362 alpha
    S(    2) --> V(   10) amplitude = -0.3002 alpha
    S(    2) --> V(   12) amplitude =  0.3735 alpha

 Excited state  34: excitation energy (eV) =    6.7957
 Total energy for state 34:                  -576.07577356 au
    <S**2>     :  2.1663
    Trans. Mom.: -1.1656 X  -0.0015 Y  -0.0000 Z
    Strength   :     0.2261889412
    D(   45) --> V(    1) amplitude =  0.3022 alpha
    D(   46) --> V(    3) amplitude = -0.2584 alpha
    D(   47) --> V(    2) amplitude =  0.3221 alpha
    D(   38) --> S(    1) amplitude = -0.2107 beta
    D(   39) --> S(    1) amplitude =  0.5506 beta
    D(   44) --> V(    1) amplitude = -0.1944 beta
    D(   45) --> V(    3) amplitude =  0.2680 beta
    D(   46) --> V(    2) amplitude =  0.4405 beta

 Excited state  35: excitation energy (eV) =    6.8741
 Total energy for state 35:                  -576.07288984 au
    <S**2>     :  2.2629
    Trans. Mom.:  0.8788 X  -0.0147 Y   0.0000 Z
    Strength   :     0.1301069257
    D(   46) --> V(    3) amplitude =  0.2127 alpha
    D(   47) --> V(    2) amplitude = -0.2907 alpha
    D(   38) --> S(    1) amplitude = -0.1885 beta
    D(   39) --> S(    1) amplitude =  0.6757 beta
    D(   44) --> V(    1) amplitude =  0.4287 beta
    D(   46) --> V(    2) amplitude = -0.1607 beta

 Excited state  36: excitation energy (eV) =    6.9187
 Total energy for state 36:                  -576.07125156 au
    <S**2>     :  2.3386
    Trans. Mom.:  0.0000 X   0.0000 Y  -0.0488 Z
    Strength   :     0.0004038013
    D(   37) --> S(    1) amplitude = -0.5634 beta
    D(   40) --> S(    1) amplitude = -0.2765 beta
    D(   41) --> S(    1) amplitude =  0.6044 beta
    D(   41) --> S(    2) amplitude =  0.1536 beta
    D(   43) --> S(    1) amplitude = -0.1595 beta
    D(   47) --> V(    1) amplitude = -0.1510 beta

 Excited state  37: excitation energy (eV) =    6.9726
 Total energy for state 37:                  -576.06927210 au
    <S**2>     :  2.1974
    Trans. Mom.: -0.0000 X  -0.0000 Y  -0.0102 Z
    Strength   :     0.0000177176
    S(    2) --> V(    8) amplitude =  0.3757 alpha
    S(    2) --> V(   10) amplitude =  0.8430 alpha
    S(    2) --> V(   12) amplitude = -0.1659 alpha

 Excited state  38: excitation energy (eV) =    7.0619
 Total energy for state 38:                  -576.06599152 au
    <S**2>     :  2.2330
    Trans. Mom.: -0.2462 X   0.0277 Y  -0.0000 Z
    Strength   :     0.0106229827
    D(   28) --> S(    1) amplitude = -0.1595 beta
    D(   33) --> S(    1) amplitude = -0.1982 beta
    D(   38) --> S(    1) amplitude =  0.8035 beta
    D(   38) --> S(    2) amplitude =  0.2475 beta
    D(   39) --> S(    1) amplitude =  0.1926 beta
    D(   40) --> V(    1) amplitude = -0.1892 beta
    D(   42) --> S(    2) amplitude =  0.2492 beta

 Excited state  39: excitation energy (eV) =    7.1979
 Total energy for state 39:                  -576.06099346 au
    <S**2>     :  2.1888
    Trans. Mom.:  0.1146 X  -0.0449 Y   0.0000 Z
    Strength   :     0.0026704392
    S(    2) --> V(    9) amplitude =  0.4714 alpha
    S(    2) --> V(   11) amplitude =  0.7225 alpha
    S(    2) --> V(   13) amplitude = -0.2648 alpha
    S(    2) --> V(   15) amplitude = -0.2487 alpha

 Excited state  40: excitation energy (eV) =    7.2514
 Total energy for state 40:                  -576.05902538 au
    <S**2>     :  2.4297
    Trans. Mom.: -0.0000 X   0.0000 Y  -0.0056 Z
    Strength   :     0.0000056242
    D(   38) --> V(    1) amplitude =  0.1714 beta
    D(   42) --> V(    1) amplitude = -0.2413 beta
    D(   43) --> S(    2) amplitude = -0.8546 beta

 Excited state  41: excitation energy (eV) =    7.3373
 Total energy for state 41:                  -576.05586750 au
    <S**2>     :  2.2822
    Trans. Mom.:  0.5624 X  -0.0186 Y  -0.0000 Z
    Strength   :     0.0569106781
    S(    2) --> V(    7) amplitude =  0.1949 alpha
    S(    2) --> V(   11) amplitude =  0.3069 alpha
    S(    2) --> V(   13) amplitude =  0.7079 alpha
    S(    2) --> V(   15) amplitude =  0.2282 alpha
    D(   42) --> S(    2) amplitude =  0.3644 beta
    D(   43) --> V(    1) amplitude =  0.1522 beta

 Excited state  42: excitation energy (eV) =    7.3566
 Total energy for state 42:                  -576.05516151 au
    <S**2>     :  2.4390
    Trans. Mom.:  0.1647 X   0.0232 Y  -0.0000 Z
    Strength   :     0.0049834516
    S(    2) --> V(   11) amplitude = -0.1605 alpha
    S(    2) --> V(   13) amplitude = -0.3561 alpha
    D(   33) --> S(    1) amplitude =  0.1506 beta
    D(   42) --> S(    2) amplitude =  0.7355 beta
    D(   43) --> V(    1) amplitude =  0.2795 beta

 Excited state  43: excitation energy (eV) =    7.4087
 Total energy for state 43:                  -576.05324423 au
    <S**2>     :  2.3780
    Trans. Mom.:  0.0000 X  -0.0000 Y  -0.3501 Z
    Strength   :     0.0222488254
    S(    2) --> V(    8) amplitude = -0.2740 alpha
    S(    2) --> V(   10) amplitude =  0.2271 alpha
    S(    2) --> V(   12) amplitude =  0.7059 alpha
    S(    2) --> V(   14) amplitude = -0.1517 alpha
    D(   41) --> S(    2) amplitude = -0.3201 beta
    D(   47) --> V(    2) amplitude =  0.1820 beta

 Excited state  44: excitation energy (eV) =    7.4364
 Total energy for state 44:                  -576.05222549 au
    <S**2>     :  2.4757
    Trans. Mom.:  0.0000 X  -0.0000 Y   0.7060 Z
    Strength   :     0.0908068328
    D(   46) --> V(    1) amplitude = -0.1997 alpha
    S(    1) --> V(    2) amplitude =  0.2058 alpha
    S(    2) --> V(   12) amplitude =  0.4894 alpha
    S(    2) --> V(   16) amplitude =  0.1705 alpha
    D(   41) --> S(    2) amplitude =  0.4126 beta
    D(   45) --> V(    1) amplitude =  0.2698 beta
    D(   47) --> V(    2) amplitude = -0.3534 beta

 Excited state  45: excitation energy (eV) =    7.4440
 Total energy for state 45:                  -576.05194683 au
    <S**2>     :  2.4775
    Trans. Mom.: -1.3923 X   0.5656 Y   0.0000 Z
    Strength   :     0.4118895935
    D(   45) --> V(    2) amplitude = -0.1764 alpha
    D(   47) --> V(    1) amplitude = -0.2712 alpha
    S(    1) --> V(    3) amplitude = -0.2993 alpha
    S(    2) --> V(   13) amplitude =  0.1763 alpha
    D(   44) --> V(    1) amplitude =  0.2737 beta
    D(   46) --> V(    1) amplitude = -0.4137 beta
    D(   47) --> V(    3) amplitude =  0.5821 beta

 Excited state  46: excitation energy (eV) =    7.4762
 Total energy for state 46:                  -576.05076344 au
    <S**2>     :  2.6629
    Trans. Mom.: -0.0000 X   0.0000 Y  -0.9784 Z
    Strength   :     0.1753205577
    D(   40) --> V(    1) amplitude =  0.1801 alpha
    D(   46) --> V(    1) amplitude =  0.2319 alpha
    S(    1) --> V(    2) amplitude = -0.2768 alpha
    D(   37) --> S(    1) amplitude =  0.1538 beta
    D(   39) --> V(    1) amplitude =  0.2224 beta
    D(   40) --> S(    2) amplitude = -0.1764 beta
    D(   41) --> S(    1) amplitude = -0.1682 beta
    D(   41) --> S(    2) amplitude =  0.3345 beta
    D(   44) --> V(    3) amplitude = -0.3052 beta
    D(   45) --> V(    1) amplitude = -0.3260 beta
    D(   47) --> V(    1) amplitude = -0.1808 beta
    D(   47) --> V(    2) amplitude =  0.3742 beta

 Excited state  47: excitation energy (eV) =    7.5210
 Total energy for state 47:                  -576.04911635 au
    <S**2>     :  3.1116
    Trans. Mom.:  0.4569 X  -0.5403 Y  -0.0000 Z
    Strength   :     0.0922509920
    D(   46) --> V(    4) amplitude =  0.1659 alpha
    D(   47) --> V(    1) amplitude =  0.3076 alpha
    S(    1) --> V(    3) amplitude =  0.4296 alpha
    S(    2) --> V(   17) amplitude = -0.1531 alpha
    D(   39) --> S(    2) amplitude =  0.3056 beta
    D(   44) --> V(    1) amplitude =  0.2878 beta
    D(   44) --> V(    2) amplitude = -0.4102 beta
    D(   46) --> V(    1) amplitude =  0.1669 beta

 Excited state  48: excitation energy (eV) =    7.5559
 Total energy for state 48:                  -576.04783546 au
    <S**2>     :  3.1269
    Trans. Mom.:  0.0000 X  -0.0000 Y   0.2696 Z
    Strength   :     0.0134567716
    D(   40) --> V(    2) amplitude = -0.1611 alpha
    D(   47) --> V(    4) amplitude = -0.1737 alpha
    S(    1) --> V(    2) amplitude =  0.1549 alpha
    D(   38) --> V(    1) amplitude = -0.1512 beta
    D(   39) --> V(    2) amplitude = -0.1569 beta
    D(   40) --> S(    2) amplitude =  0.5855 beta
    D(   42) --> V(    1) amplitude = -0.2180 beta
    D(   42) --> V(    2) amplitude = -0.1895 beta
    D(   44) --> V(    3) amplitude = -0.2100 beta
    D(   45) --> V(    2) amplitude =  0.2745 beta
    D(   46) --> V(    3) amplitude = -0.2384 beta

 Excited state  49: excitation energy (eV) =    7.5996
 Total energy for state 49:                  -576.04623085 au
    <S**2>     :  3.1138
    Trans. Mom.: -0.0332 X   0.1266 Y  -0.0000 Z
    Strength   :     0.0031913600
    D(   39) --> V(    1) amplitude = -0.2248 alpha
    D(   45) --> V(    1) amplitude =  0.1595 alpha
    S(    2) --> V(   13) amplitude =  0.1561 alpha
    S(    2) --> V(   17) amplitude = -0.2785 alpha
    D(   39) --> S(    2) amplitude =  0.3559 beta
    D(   41) --> V(    1) amplitude =  0.2044 beta
    D(   44) --> V(    2) amplitude =  0.5161 beta
    D(   45) --> V(    3) amplitude = -0.2564 beta
    D(   46) --> V(    2) amplitude =  0.1501 beta
    D(   47) --> V(    3) amplitude = -0.2786 beta

 Excited state  50: excitation energy (eV) =    7.6139
 Total energy for state 50:                  -576.04570492 au
    <S**2>     :  3.0899
    Trans. Mom.: -0.0000 X  -0.0000 Y   0.5230 Z
    Strength   :     0.0510328006
    D(   47) --> V(    3) amplitude =  0.1576 alpha
    D(   40) --> S(    2) amplitude = -0.4230 beta
    D(   42) --> V(    1) amplitude =  0.1735 beta
    D(   44) --> V(    3) amplitude =  0.1713 beta
    D(   45) --> V(    2) amplitude =  0.4883 beta
    D(   46) --> V(    3) amplitude = -0.4831 beta
    D(   47) --> V(    2) amplitude = -0.2515 beta
 
 ---------------------------------------------------
  SETman timing summary (seconds)
  CPU time             12642.28s
  System time              0.00s
  Wall time            12772.08s



            *********SPIN-ORBIT COUPLING JOB USING WIGNER–ECKART THEOREM BEGINS HERE*********

 Calculating one electron integrals:  Completed calculation of one electron integrals!
 Calculating MF integrals:  Completed calculation of MF integrals!
 Calculating S^2 values of the spin-states: S^2 values computed!
 Computing transition densities and evaluating SOCME with Libwe: 

**************************************************
 State A: Root 0
 State B: Root 1


 Analysing Sz ans S^2 of the pair of states...
 Ket state:  Computed S^2 = 2.0970576614 will be treated as 2.0000000000 Sz = 1.0000000000
 Bra state:  Computed S^2 = 2.0985592455 will be treated as 2.0000000000 Sz = 1.0000000000
 Clebsh-Gordan coefficient: <1.000,1.000;1.000,0.000|1.000,1.000> = 0.707

_______________________________
 One-electron SO (cm-1)
 Reduced matrix elements:
 <S|| Hso(L-) ||S'> = (-0.000000,0.000000)
 <S|| Hso(L0) ||S'> = (0.000000,-121.386768)
 <S|| Hso(L+) ||S'> = (-0.000000,-0.000000)

 SOCC = 121.386768


 Actual matrix elements:
       |Sz=-1.00>           |Sz=0.00>           |Sz=1.00>
 <Sz=-1.00|(0.000000,85.833407)(-0.000000,-0.000000)(-0.000000,-0.000000)
 <Sz=0.00|(0.000000,-0.000000)(0.000000,-0.000000)(-0.000000,-0.000000)
 <Sz=1.00|(-0.000000,-0.000000)(0.000000,-0.000000)(0.000000,-85.833407)
_______________________________
 Mean-field SO (cm-1)
 Reduced matrix elements:
 <S|| Hso(L-) ||S'> = (-0.000000,0.000000)
 <S|| Hso(L0) ||S'> = (0.000000,-76.898453)
 <S|| Hso(L+) ||S'> = (-0.000000,-0.000000)

 Singlet part of <S|| Hso(L0) ||S'> = (-0.000000,-0.647469) (excluded from all matrix elements)
 L-/L+ Averaged reduced matrix elements:
 <S|| Hso(L-) ||S'> = (-0.000000,0.000000)
 <S|| Hso(L+) ||S'> = (-0.000000,-0.000000)

 SOCC = 76.898453


 Actual matrix elements:
       |Sz=-1.00>           |Sz=0.00>           |Sz=1.00>
 <Sz=-1.00|(0.000000,54.375418)(-0.000000,-0.000000)(-0.000000,-0.000000)
 <Sz=0.00|(0.000000,-0.000000)(0.000000,-0.000000)(-0.000000,-0.000000)
 <Sz=1.00|(-0.000000,-0.000000)(0.000000,-0.000000)(0.000000,-54.375418)
_______________________________

**************************************************

**************************************************
 State A: Root 0
 State B: Root 2


 Analysing Sz ans S^2 of the pair of states...
 Ket state:  Computed S^2 = 2.097058 will be treated as 2.000000 Sz = 1.000000
 Bra state:  Computed S^2 = 2.143287 will be treated as 2.000000 Sz = 1.000000
 Clebsh-Gordan coefficient: <1.000,1.000;1.000,0.000|1.000,1.000> = 0.707

_______________________________
 One-electron SO (cm-1)
 Reduced matrix elements:
 <S|| Hso(L-) ||S'> = (21.502130,-3.805364)
 <S|| Hso(L0) ||S'> = (0.000000,-0.000000)
 <S|| Hso(L+) ||S'> = (21.502130,3.805364)

 SOCC = 30.881140


 Actual matrix elements:
       |Sz=-1.00>           |Sz=0.00>           |Sz=1.00>
 <Sz=-1.00|(-0.000000,0.000000)(15.204302,2.690799)(0.000000,0.000000)
 <Sz=0.00|(-15.204302,2.690799)(-0.000000,-0.000000)(15.204302,2.690799)
 <Sz=1.00|(0.000000,-0.000000)(-15.204302,2.690799)(-0.000000,-0.000000)
_______________________________
 Mean-field SO (cm-1)
 Reduced matrix elements:
 <S|| Hso(L-) ||S'> = (13.703532,-2.182857)
 <S|| Hso(L0) ||S'> = (0.000000,-0.000000)
 <S|| Hso(L+) ||S'> = (13.852876,2.218878)

 Singlet part of <S|| Hso(L0) ||S'> = (0.000000,0.000000) (excluded from all matrix elements)
 L-/L+ Averaged reduced matrix elements:
 <S|| Hso(L-) ||S'> = (13.778204,-2.200867)
 <S|| Hso(L+) ||S'> = (13.778204,2.200867)

 SOCC = 19.732345


 Actual matrix elements:
       |Sz=-1.00>           |Sz=0.00>           |Sz=1.00>
 <Sz=-1.00|(-0.000000,0.000000)(9.742662,1.556248)(0.000000,0.000000)
 <Sz=0.00|(-9.742662,1.556248)(-0.000000,-0.000000)(9.742662,1.556248)
 <Sz=1.00|(0.000000,-0.000000)(-9.742662,1.556248)(-0.000000,-0.000000)
_______________________________

**************************************************

**************************************************
 State A: Root 0
 State B: Root 3


 Analysing Sz ans S^2 of the pair of states...
 Ket state:  Computed S^2 = 2.097058 will be treated as 2.000000 Sz = 1.000000
 Bra state:  Computed S^2 = 2.234114 will be treated as 2.000000 Sz = 1.000000
 Clebsh-Gordan coefficient: <1.000,1.000;1.000,0.000|1.000,1.000> = 0.707

_______________________________
 One-electron SO (cm-1)
 Reduced matrix elements:
 <S|| Hso(L-) ||S'> = (-13.611082,8.808062)
 <S|| Hso(L0) ||S'> = (0.000000,0.000000)
 <S|| Hso(L+) ||S'> = (-13.611082,-8.808062)

 SOCC = 22.927865


 Actual matrix elements:
       |Sz=-1.00>           |Sz=0.00>           |Sz=1.00>
 <Sz=-1.00|(0.000000,-0.000000)(-9.624488,-6.228240)(-0.000000,-0.000000)
 <Sz=0.00|(9.624488,-6.228240)(0.000000,0.000000)(-9.624488,-6.228240)
 <Sz=1.00|(-0.000000,0.000000)(9.624488,-6.228240)(0.000000,0.000000)
_______________________________
 Mean-field SO (cm-1)
 Reduced matrix elements:
 <S|| Hso(L-) ||S'> = (-8.325556,5.601728)
 <S|| Hso(L0) ||S'> = (0.000000,0.000000)
 <S|| Hso(L+) ||S'> = (-8.414859,-5.630878)

 Singlet part of <S|| Hso(L0) ||S'> = (0.000000,0.000000) (excluded from all matrix elements)
 L-/L+ Averaged reduced matrix elements:
 <S|| Hso(L-) ||S'> = (-8.370208,5.616303)
 <S|| Hso(L+) ||S'> = (-8.370208,-5.616303)

 SOCC = 14.255051


 Actual matrix elements:
       |Sz=-1.00>           |Sz=0.00>           |Sz=1.00>
 <Sz=-1.00|(0.000000,-0.000000)(-5.918631,-3.971326)(-0.000000,-0.000000)
 <Sz=0.00|(5.918631,-3.971326)(0.000000,0.000000)(-5.918631,-3.971326)
 <Sz=1.00|(-0.000000,0.000000)(5.918631,-3.971326)(0.000000,0.000000)
_______________________________

**************************************************

**************************************************
 State A: Root 0
 State B: Root 4


 Analysing Sz ans S^2 of the pair of states...
 Ket state:  Computed S^2 = 2.097058 will be treated as 2.000000 Sz = 1.000000
 Bra state:  Computed S^2 = 2.182240 will be treated as 2.000000 Sz = 1.000000
 Clebsh-Gordan coefficient: <1.000,1.000;1.000,0.000|1.000,1.000> = 0.707

_______________________________
 One-electron SO (cm-1)
 Reduced matrix elements:
 <S|| Hso(L-) ||S'> = (-0.000000,-0.000000)
 <S|| Hso(L0) ||S'> = (0.000000,-1.246668)
 <S|| Hso(L+) ||S'> = (-0.000000,0.000000)

 SOCC = 1.246668


 Actual matrix elements:
       |Sz=-1.00>           |Sz=0.00>           |Sz=1.00>
 <Sz=-1.00|(0.000000,0.881528)(-0.000000,0.000000)(-0.000000,-0.000000)
 <Sz=0.00|(0.000000,0.000000)(0.000000,-0.000000)(-0.000000,0.000000)
 <Sz=1.00|(-0.000000,-0.000000)(0.000000,0.000000)(0.000000,-0.881528)
_______________________________
 Mean-field SO (cm-1)
 Reduced matrix elements:
 <S|| Hso(L-) ||S'> = (-0.000000,-0.000000)
 <S|| Hso(L0) ||S'> = (0.000000,-1.240853)
 <S|| Hso(L+) ||S'> = (-0.000000,0.000000)

 Singlet part of <S|| Hso(L0) ||S'> = (-0.000000,-0.013225) (excluded from all matrix elements)
 L-/L+ Averaged reduced matrix elements:
 <S|| Hso(L-) ||S'> = (-0.000000,-0.000000)
 <S|| Hso(L+) ||S'> = (-0.000000,0.000000)

 SOCC = 1.240853


 Actual matrix elements:
       |Sz=-1.00>           |Sz=0.00>           |Sz=1.00>
 <Sz=-1.00|(0.000000,0.877416)(-0.000000,0.000000)(-0.000000,-0.000000)
 <Sz=0.00|(0.000000,0.000000)(0.000000,-0.000000)(-0.000000,0.000000)
 <Sz=1.00|(-0.000000,-0.000000)(0.000000,0.000000)(0.000000,-0.877416)
_______________________________

**************************************************

**************************************************
 State A: Root 0
 State B: Root 5


 Analysing Sz ans S^2 of the pair of states...
 Ket state:  Computed S^2 = 2.097058 will be treated as 2.000000 Sz = 1.000000
 Bra state:  Computed S^2 = 2.181379 will be treated as 2.000000 Sz = 1.000000
 Clebsh-Gordan coefficient: <1.000,1.000;1.000,0.000|1.000,1.000> = 0.707

_______________________________
 One-electron SO (cm-1)
 Reduced matrix elements:
 <S|| Hso(L-) ||S'> = (5.613102,-0.780181)
 <S|| Hso(L0) ||S'> = (0.000000,0.000000)
 <S|| Hso(L+) ||S'> = (5.613102,0.780181)

 SOCC = 8.014436


 Actual matrix elements:
       |Sz=-1.00>           |Sz=0.00>           |Sz=1.00>
 <Sz=-1.00|(-0.000000,-0.000000)(3.969062,0.551671)(0.000000,0.000000)
 <Sz=0.00|(-3.969062,0.551671)(-0.000000,-0.000000)(3.969062,0.551671)
 <Sz=1.00|(0.000000,-0.000000)(-3.969062,0.551671)(-0.000000,0.000000)
_______________________________
 Mean-field SO (cm-1)
 Reduced matrix elements:
 <S|| Hso(L-) ||S'> = (4.043257,-0.671180)
 <S|| Hso(L0) ||S'> = (0.000000,0.000000)
 <S|| Hso(L+) ||S'> = (4.095217,0.691036)

 Singlet part of <S|| Hso(L0) ||S'> = (0.000000,0.000000) (excluded from all matrix elements)
 L-/L+ Averaged reduced matrix elements:
 <S|| Hso(L-) ||S'> = (4.069237,-0.681108)
 <S|| Hso(L+) ||S'> = (4.069237,0.681108)

 SOCC = 5.834827


 Actual matrix elements:
       |Sz=-1.00>           |Sz=0.00>           |Sz=1.00>
 <Sz=-1.00|(-0.000000,-0.000000)(2.877385,0.481616)(0.000000,0.000000)
 <Sz=0.00|(-2.877385,0.481616)(-0.000000,-0.000000)(2.877385,0.481616)
 <Sz=1.00|(0.000000,-0.000000)(-2.877385,0.481616)(-0.000000,0.000000)
_______________________________

**************************************************

**************************************************
 State A: Root 0
 State B: Root 6


 Analysing Sz ans S^2 of the pair of states...
 Ket state:  Computed S^2 = 2.097058 will be treated as 2.000000 Sz = 1.000000
 Bra state:  Computed S^2 = 2.232186 will be treated as 2.000000 Sz = 1.000000
 Clebsh-Gordan coefficient: <1.000,1.000;1.000,0.000|1.000,1.000> = 0.707

_______________________________
 One-electron SO (cm-1)
 Reduced matrix elements:
 <S|| Hso(L-) ||S'> = (2.316282,0.941463)
 <S|| Hso(L0) ||S'> = (0.000000,0.000000)
 <S|| Hso(L+) ||S'> = (2.316282,-0.941463)

 SOCC = 3.535963


 Actual matrix elements:
       |Sz=-1.00>           |Sz=0.00>           |Sz=1.00>
 <Sz=-1.00|(-0.000000,-0.000000)(1.637859,-0.665715)(0.000000,-0.000000)
 <Sz=0.00|(-1.637859,-0.665715)(-0.000000,0.000000)(1.637859,-0.665715)
 <Sz=1.00|(0.000000,0.000000)(-1.637859,-0.665715)(-0.000000,0.000000)
_______________________________
 Mean-field SO (cm-1)
 Reduced matrix elements:
 <S|| Hso(L-) ||S'> = (0.470621,0.554887)
 <S|| Hso(L0) ||S'> = (0.000000,0.000000)
 <S|| Hso(L+) ||S'> = (0.467598,-0.554016)

 Singlet part of <S|| Hso(L0) ||S'> = (0.000000,0.000000) (excluded from all matrix elements)
 L-/L+ Averaged reduced matrix elements:
 <S|| Hso(L-) ||S'> = (0.469110,0.554451)
 <S|| Hso(L+) ||S'> = (0.469110,-0.554451)

 SOCC = 1.027113


 Actual matrix elements:
       |Sz=-1.00>           |Sz=0.00>           |Sz=1.00>
 <Sz=-1.00|(-0.000000,-0.000000)(0.331711,-0.392056)(0.000000,-0.000000)
 <Sz=0.00|(-0.331711,-0.392056)(-0.000000,0.000000)(0.331711,-0.392056)
 <Sz=1.00|(0.000000,0.000000)(-0.331711,-0.392056)(-0.000000,0.000000)
_______________________________

**************************************************

**************************************************
 State A: Root 0
 State B: Root 7


 Analysing Sz ans S^2 of the pair of states...
 Ket state:  Computed S^2 = 2.097058 will be treated as 2.000000 Sz = 1.000000
 Bra state:  Computed S^2 = 2.279668 will be treated as 2.000000 Sz = 1.000000
 Clebsh-Gordan coefficient: <1.000,1.000;1.000,0.000|1.000,1.000> = 0.707

_______________________________
 One-electron SO (cm-1)
 Reduced matrix elements:
 <S|| Hso(L-) ||S'> = (-0.000000,0.000000)
 <S|| Hso(L0) ||S'> = (0.000000,4.849271)
 <S|| Hso(L+) ||S'> = (-0.000000,-0.000000)

 SOCC = 4.849271


 Actual matrix elements:
       |Sz=-1.00>           |Sz=0.00>           |Sz=1.00>
 <Sz=-1.00|(0.000000,-3.428953)(-0.000000,-0.000000)(-0.000000,0.000000)
 <Sz=0.00|(0.000000,-0.000000)(0.000000,0.000000)(-0.000000,-0.000000)
 <Sz=1.00|(-0.000000,0.000000)(0.000000,-0.000000)(0.000000,3.428953)
_______________________________
 Mean-field SO (cm-1)
 Reduced matrix elements:
 <S|| Hso(L-) ||S'> = (-0.000000,0.000000)
 <S|| Hso(L0) ||S'> = (0.000000,3.516188)
 <S|| Hso(L+) ||S'> = (-0.000000,-0.000000)

 Singlet part of <S|| Hso(L0) ||S'> = (0.000000,0.002814) (excluded from all matrix elements)
 L-/L+ Averaged reduced matrix elements:
 <S|| Hso(L-) ||S'> = (-0.000000,0.000000)
 <S|| Hso(L+) ||S'> = (-0.000000,-0.000000)

 SOCC = 3.516188


 Actual matrix elements:
       |Sz=-1.00>           |Sz=0.00>           |Sz=1.00>
 <Sz=-1.00|(0.000000,-2.486321)(-0.000000,-0.000000)(-0.000000,0.000000)
 <Sz=0.00|(0.000000,-0.000000)(0.000000,0.000000)(-0.000000,-0.000000)
 <Sz=1.00|(-0.000000,0.000000)(0.000000,-0.000000)(0.000000,2.486321)
_______________________________

**************************************************

**************************************************
 State A: Root 0
 State B: Root 8


 Analysing Sz ans S^2 of the pair of states...
 Ket state:  Computed S^2 = 2.097058 will be treated as 2.000000 Sz = 1.000000
WARNING! The deviation of S^2 from the correct value is large, indicating a significant spin contamination. The results may be unreliable
 Bra state:  Computed S^2 = 2.708332 will be treated as 2.000000 Sz = 1.000000
 Clebsh-Gordan coefficient: <1.000,1.000;1.000,0.000|1.000,1.000> = 0.707

_______________________________
 One-electron SO (cm-1)
 Reduced matrix elements:
 <S|| Hso(L-) ||S'> = (0.000000,0.000000)
 <S|| Hso(L0) ||S'> = (0.000000,30.081723)
 <S|| Hso(L+) ||S'> = (0.000000,-0.000000)

 SOCC = 30.081723


 Actual matrix elements:
       |Sz=-1.00>           |Sz=0.00>           |Sz=1.00>
 <Sz=-1.00|(-0.000000,-21.270990)(0.000000,-0.000000)(0.000000,0.000000)
 <Sz=0.00|(-0.000000,-0.000000)(-0.000000,0.000000)(0.000000,-0.000000)
 <Sz=1.00|(0.000000,0.000000)(-0.000000,-0.000000)(-0.000000,21.270990)
_______________________________
 Mean-field SO (cm-1)
 Reduced matrix elements:
 <S|| Hso(L-) ||S'> = (0.000000,0.000000)
 <S|| Hso(L0) ||S'> = (0.000000,18.624522)
 <S|| Hso(L+) ||S'> = (0.000000,-0.000000)

 Singlet part of <S|| Hso(L0) ||S'> = (0.000000,0.155713) (excluded from all matrix elements)
 L-/L+ Averaged reduced matrix elements:
 <S|| Hso(L-) ||S'> = (0.000000,0.000000)
 <S|| Hso(L+) ||S'> = (0.000000,-0.000000)

 SOCC = 18.624522


 Actual matrix elements:
       |Sz=-1.00>           |Sz=0.00>           |Sz=1.00>
 <Sz=-1.00|(-0.000000,-13.169526)(0.000000,-0.000000)(0.000000,0.000000)
 <Sz=0.00|(-0.000000,-0.000000)(-0.000000,0.000000)(0.000000,-0.000000)
 <Sz=1.00|(0.000000,0.000000)(-0.000000,-0.000000)(-0.000000,13.169526)
_______________________________

**************************************************

**************************************************
 State A: Root 0
 State B: Root 9


 Analysing Sz ans S^2 of the pair of states...
 Ket state:  Computed S^2 = 2.097058 will be treated as 2.000000 Sz = 1.000000
 Bra state:  Computed S^2 = 2.224688 will be treated as 2.000000 Sz = 1.000000
 Clebsh-Gordan coefficient: <1.000,1.000;1.000,0.000|1.000,1.000> = 0.707

_______________________________
 One-electron SO (cm-1)
 Reduced matrix elements:
 <S|| Hso(L-) ||S'> = (-68.636626,13.466923)
 <S|| Hso(L0) ||S'> = (0.000000,-0.000000)
 <S|| Hso(L+) ||S'> = (-68.636626,-13.466923)

 SOCC = 98.917586


 Actual matrix elements:
       |Sz=-1.00>           |Sz=0.00>           |Sz=1.00>
 <Sz=-1.00|(0.000000,0.000000)(-48.533424,-9.522553)(-0.000000,-0.000000)
 <Sz=0.00|(48.533424,-9.522553)(0.000000,0.000000)(-48.533424,-9.522553)
 <Sz=1.00|(-0.000000,0.000000)(48.533424,-9.522553)(0.000000,-0.000000)
_______________________________
 Mean-field SO (cm-1)
 Reduced matrix elements:
 <S|| Hso(L-) ||S'> = (-42.701500,8.305218)
 <S|| Hso(L0) ||S'> = (0.000000,-0.000000)
 <S|| Hso(L+) ||S'> = (-43.208664,-8.441758)

 Singlet part of <S|| Hso(L0) ||S'> = (-0.000000,-0.000000) (excluded from all matrix elements)
 L-/L+ Averaged reduced matrix elements:
 <S|| Hso(L-) ||S'> = (-42.955082,8.373488)
 <S|| Hso(L+) ||S'> = (-42.955082,-8.373488)

 SOCC = 61.891104


 Actual matrix elements:
       |Sz=-1.00>           |Sz=0.00>           |Sz=1.00>
 <Sz=-1.00|(0.000000,0.000000)(-30.373830,-5.920950)(-0.000000,-0.000000)
 <Sz=0.00|(30.373830,-5.920950)(0.000000,0.000000)(-30.373830,-5.920950)
 <Sz=1.00|(-0.000000,0.000000)(30.373830,-5.920950)(0.000000,-0.000000)
_______________________________

**************************************************

**************************************************
 State A: Root 0
 State B: Root 10


 Analysing Sz ans S^2 of the pair of states...
 Ket state:  Computed S^2 = 2.097058 will be treated as 2.000000 Sz = 1.000000
WARNING! The deviation of S^2 from the correct value is large, indicating a significant spin contamination. The results may be unreliable
 Bra state:  Computed S^2 = 2.692670 will be treated as 2.000000 Sz = 1.000000
 Clebsh-Gordan coefficient: <1.000,1.000;1.000,0.000|1.000,1.000> = 0.707

_______________________________
 One-electron SO (cm-1)
 Reduced matrix elements:
 <S|| Hso(L-) ||S'> = (-0.000000,0.000000)
 <S|| Hso(L0) ||S'> = (0.000000,38.168284)
 <S|| Hso(L+) ||S'> = (-0.000000,-0.000000)

 SOCC = 38.168284


 Actual matrix elements:
       |Sz=-1.00>           |Sz=0.00>           |Sz=1.00>
 <Sz=-1.00|(0.000000,-26.989052)(-0.000000,-0.000000)(-0.000000,0.000000)
 <Sz=0.00|(0.000000,-0.000000)(0.000000,0.000000)(-0.000000,-0.000000)
 <Sz=1.00|(-0.000000,0.000000)(0.000000,-0.000000)(0.000000,26.989052)
_______________________________
 Mean-field SO (cm-1)
 Reduced matrix elements:
 <S|| Hso(L-) ||S'> = (-0.000000,0.000000)
 <S|| Hso(L0) ||S'> = (0.000000,23.652797)
 <S|| Hso(L+) ||S'> = (-0.000000,-0.000000)

 Singlet part of <S|| Hso(L0) ||S'> = (0.000000,0.176258) (excluded from all matrix elements)
 L-/L+ Averaged reduced matrix elements:
 <S|| Hso(L-) ||S'> = (-0.000000,0.000000)
 <S|| Hso(L+) ||S'> = (-0.000000,-0.000000)

 SOCC = 23.652797


 Actual matrix elements:
       |Sz=-1.00>           |Sz=0.00>           |Sz=1.00>
 <Sz=-1.00|(0.000000,-16.725053)(-0.000000,-0.000000)(-0.000000,0.000000)
 <Sz=0.00|(0.000000,-0.000000)(0.000000,0.000000)(-0.000000,-0.000000)
 <Sz=1.00|(-0.000000,0.000000)(0.000000,-0.000000)(0.000000,16.725053)
_______________________________

**************************************************

**************************************************
 State A: Root 0
 State B: Root 11


 Analysing Sz ans S^2 of the pair of states...
 Ket state:  Computed S^2 = 2.097058 will be treated as 2.000000 Sz = 1.000000
WARNING! The deviation of S^2 from the correct value is large, indicating a significant spin contamination. The results may be unreliable
 Bra state:  Computed S^2 = 2.911219 will be treated as 2.000000 Sz = 1.000000
 Clebsh-Gordan coefficient: <1.000,1.000;1.000,0.000|1.000,1.000> = 0.707

_______________________________
 One-electron SO (cm-1)
 Reduced matrix elements:
 <S|| Hso(L-) ||S'> = (29.500360,-7.908507)
 <S|| Hso(L0) ||S'> = (0.000000,-0.000000)
 <S|| Hso(L+) ||S'> = (29.500360,7.908507)

 SOCC = 43.192956


 Actual matrix elements:
       |Sz=-1.00>           |Sz=0.00>           |Sz=1.00>
 <Sz=-1.00|(-0.000000,0.000000)(20.859905,5.592159)(0.000000,0.000000)
 <Sz=0.00|(-20.859905,5.592159)(-0.000000,-0.000000)(20.859905,5.592159)
 <Sz=1.00|(0.000000,-0.000000)(-20.859905,5.592159)(-0.000000,-0.000000)
_______________________________
 Mean-field SO (cm-1)
 Reduced matrix elements:
 <S|| Hso(L-) ||S'> = (18.261977,-5.020257)
 <S|| Hso(L0) ||S'> = (0.000000,-0.000000)
 <S|| Hso(L+) ||S'> = (18.482267,5.080501)

 Singlet part of <S|| Hso(L0) ||S'> = (-0.000000,-0.000000) (excluded from all matrix elements)
 L-/L+ Averaged reduced matrix elements:
 <S|| Hso(L-) ||S'> = (18.372122,-5.050379)
 <S|| Hso(L+) ||S'> = (18.372122,5.050379)

 SOCC = 26.945916


 Actual matrix elements:
       |Sz=-1.00>           |Sz=0.00>           |Sz=1.00>
 <Sz=-1.00|(-0.000000,0.000000)(12.991052,3.571157)(0.000000,0.000000)
 <Sz=0.00|(-12.991052,3.571157)(-0.000000,-0.000000)(12.991052,3.571157)
 <Sz=1.00|(0.000000,-0.000000)(-12.991052,3.571157)(-0.000000,-0.000000)
_______________________________

**************************************************

**************************************************
 State A: Root 0
 State B: Root 12


 Analysing Sz ans S^2 of the pair of states...
 Ket state:  Computed S^2 = 2.097058 will be treated as 2.000000 Sz = 1.000000
WARNING! The deviation of S^2 from the correct value is large, indicating a significant spin contamination. The results may be unreliable
 Bra state:  Computed S^2 = 3.081244 will be treated as 2.000000 Sz = 1.000000
 Clebsh-Gordan coefficient: <1.000,1.000;1.000,0.000|1.000,1.000> = 0.707

_______________________________
 One-electron SO (cm-1)
 Reduced matrix elements:
 <S|| Hso(L-) ||S'> = (-0.000000,0.000000)
 <S|| Hso(L0) ||S'> = (0.000000,-9.373930)
 <S|| Hso(L+) ||S'> = (-0.000000,-0.000000)

 SOCC = 9.373930


 Actual matrix elements:
       |Sz=-1.00>           |Sz=0.00>           |Sz=1.00>
 <Sz=-1.00|(0.000000,6.628369)(-0.000000,-0.000000)(-0.000000,-0.000000)
 <Sz=0.00|(0.000000,-0.000000)(0.000000,-0.000000)(-0.000000,-0.000000)
 <Sz=1.00|(-0.000000,-0.000000)(0.000000,-0.000000)(0.000000,-6.628369)
_______________________________
 Mean-field SO (cm-1)
 Reduced matrix elements:
 <S|| Hso(L-) ||S'> = (-0.000000,0.000000)
 <S|| Hso(L0) ||S'> = (0.000000,-5.987930)
 <S|| Hso(L+) ||S'> = (-0.000000,-0.000000)

 Singlet part of <S|| Hso(L0) ||S'> = (-0.000000,-0.042236) (excluded from all matrix elements)
 L-/L+ Averaged reduced matrix elements:
 <S|| Hso(L-) ||S'> = (-0.000000,0.000000)
 <S|| Hso(L+) ||S'> = (-0.000000,-0.000000)

 SOCC = 5.987930


 Actual matrix elements:
       |Sz=-1.00>           |Sz=0.00>           |Sz=1.00>
 <Sz=-1.00|(0.000000,4.234106)(-0.000000,-0.000000)(-0.000000,-0.000000)
 <Sz=0.00|(0.000000,-0.000000)(0.000000,-0.000000)(-0.000000,-0.000000)
 <Sz=1.00|(-0.000000,-0.000000)(0.000000,-0.000000)(0.000000,-4.234106)
_______________________________

**************************************************

**************************************************
 State A: Root 0
 State B: Root 13


 Analysing Sz ans S^2 of the pair of states...
 Ket state:  Computed S^2 = 2.097058 will be treated as 2.000000 Sz = 1.000000
WARNING! The deviation of S^2 from the correct value is large, indicating a significant spin contamination. The results may be unreliable
 Bra state:  Computed S^2 = 2.907856 will be treated as 2.000000 Sz = 1.000000
 Clebsh-Gordan coefficient: <1.000,1.000;1.000,0.000|1.000,1.000> = 0.707

_______________________________
 One-electron SO (cm-1)
 Reduced matrix elements:
 <S|| Hso(L-) ||S'> = (7.474547,-1.826335)
 <S|| Hso(L0) ||S'> = (0.000000,0.000000)
 <S|| Hso(L+) ||S'> = (7.474547,1.826335)

 SOCC = 10.881577


 Actual matrix elements:
       |Sz=-1.00>           |Sz=0.00>           |Sz=1.00>
 <Sz=-1.00|(-0.000000,-0.000000)(5.285303,1.291414)(0.000000,0.000000)
 <Sz=0.00|(-5.285303,1.291414)(-0.000000,-0.000000)(5.285303,1.291414)
 <Sz=1.00|(0.000000,-0.000000)(-5.285303,1.291414)(-0.000000,0.000000)
_______________________________
 Mean-field SO (cm-1)
 Reduced matrix elements:
 <S|| Hso(L-) ||S'> = (5.056089,-1.075396)
 <S|| Hso(L0) ||S'> = (0.000000,0.000000)
 <S|| Hso(L+) ||S'> = (5.113060,1.082299)

 Singlet part of <S|| Hso(L0) ||S'> = (0.000000,0.000000) (excluded from all matrix elements)
 L-/L+ Averaged reduced matrix elements:
 <S|| Hso(L-) ||S'> = (5.084574,-1.078847)
 <S|| Hso(L+) ||S'> = (5.084574,1.078847)

 SOCC = 7.350756


 Actual matrix elements:
       |Sz=-1.00>           |Sz=0.00>           |Sz=1.00>
 <Sz=-1.00|(-0.000000,-0.000000)(3.595337,0.762860)(0.000000,0.000000)
 <Sz=0.00|(-3.595337,0.762860)(-0.000000,-0.000000)(3.595337,0.762860)
 <Sz=1.00|(0.000000,-0.000000)(-3.595337,0.762860)(-0.000000,0.000000)
_______________________________

**************************************************

**************************************************
 State A: Root 0
 State B: Root 14


 Analysing Sz ans S^2 of the pair of states...
 Ket state:  Computed S^2 = 2.097058 will be treated as 2.000000 Sz = 1.000000
WARNING! The deviation of S^2 from the correct value is large, indicating a significant spin contamination. The results may be unreliable
 Bra state:  Computed S^2 = 3.176937 will be treated as 2.000000 Sz = 1.000000
 Clebsh-Gordan coefficient: <1.000,1.000;1.000,0.000|1.000,1.000> = 0.707

_______________________________
 One-electron SO (cm-1)
 Reduced matrix elements:
 <S|| Hso(L-) ||S'> = (-0.264020,-0.930371)
 <S|| Hso(L0) ||S'> = (0.000000,0.000000)
 <S|| Hso(L+) ||S'> = (-0.264020,0.930371)

 SOCC = 1.367697


 Actual matrix elements:
       |Sz=-1.00>           |Sz=0.00>           |Sz=1.00>
 <Sz=-1.00|(0.000000,-0.000000)(-0.186690,0.657872)(-0.000000,0.000000)
 <Sz=0.00|(0.186690,0.657872)(0.000000,-0.000000)(-0.186690,0.657872)
 <Sz=1.00|(-0.000000,-0.000000)(0.186690,0.657872)(0.000000,0.000000)
_______________________________
 Mean-field SO (cm-1)
 Reduced matrix elements:
 <S|| Hso(L-) ||S'> = (0.114479,-0.423797)
 <S|| Hso(L0) ||S'> = (0.000000,0.000000)
 <S|| Hso(L+) ||S'> = (0.110030,0.428407)

 Singlet part of <S|| Hso(L0) ||S'> = (0.000000,0.000000) (excluded from all matrix elements)
 L-/L+ Averaged reduced matrix elements:
 <S|| Hso(L-) ||S'> = (0.112254,-0.426102)
 <S|| Hso(L+) ||S'> = (0.112254,0.426102)

 SOCC = 0.623159


 Actual matrix elements:
       |Sz=-1.00>           |Sz=0.00>           |Sz=1.00>
 <Sz=-1.00|(-0.000000,-0.000000)(0.079376,0.301299)(0.000000,0.000000)
 <Sz=0.00|(-0.079376,0.301299)(-0.000000,-0.000000)(0.079376,0.301299)
 <Sz=1.00|(0.000000,-0.000000)(-0.079376,0.301299)(-0.000000,0.000000)
_______________________________

**************************************************

**************************************************
 State A: Root 0
 State B: Root 15


 Analysing Sz ans S^2 of the pair of states...
 Ket state:  Computed S^2 = 2.097058 will be treated as 2.000000 Sz = 1.000000
WARNING! The deviation of S^2 from the correct value is large, indicating a significant spin contamination. The results may be unreliable
 Bra state:  Computed S^2 = 3.044329 will be treated as 2.000000 Sz = 1.000000
 Clebsh-Gordan coefficient: <1.000,1.000;1.000,0.000|1.000,1.000> = 0.707

_______________________________
 One-electron SO (cm-1)
 Reduced matrix elements:
 <S|| Hso(L-) ||S'> = (-0.000000,0.000000)
 <S|| Hso(L0) ||S'> = (0.000000,6.779319)
 <S|| Hso(L+) ||S'> = (-0.000000,-0.000000)

 SOCC = 6.779319


 Actual matrix elements:
       |Sz=-1.00>           |Sz=0.00>           |Sz=1.00>
 <Sz=-1.00|(0.000000,-4.793703)(-0.000000,-0.000000)(-0.000000,0.000000)
 <Sz=0.00|(0.000000,-0.000000)(0.000000,0.000000)(-0.000000,-0.000000)
 <Sz=1.00|(-0.000000,0.000000)(0.000000,-0.000000)(0.000000,4.793703)
_______________________________
 Mean-field SO (cm-1)
 Reduced matrix elements:
 <S|| Hso(L-) ||S'> = (-0.000000,0.000000)
 <S|| Hso(L0) ||S'> = (0.000000,3.986718)
 <S|| Hso(L+) ||S'> = (-0.000000,-0.000000)

 Singlet part of <S|| Hso(L0) ||S'> = (0.000000,0.017720) (excluded from all matrix elements)
 L-/L+ Averaged reduced matrix elements:
 <S|| Hso(L-) ||S'> = (-0.000000,0.000000)
 <S|| Hso(L+) ||S'> = (-0.000000,-0.000000)

 SOCC = 3.986718


 Actual matrix elements:
       |Sz=-1.00>           |Sz=0.00>           |Sz=1.00>
 <Sz=-1.00|(0.000000,-2.819035)(-0.000000,-0.000000)(-0.000000,0.000000)
 <Sz=0.00|(0.000000,-0.000000)(0.000000,0.000000)(-0.000000,-0.000000)
 <Sz=1.00|(-0.000000,0.000000)(0.000000,-0.000000)(0.000000,2.819035)
_______________________________

**************************************************

**************************************************
 State A: Root 0
 State B: Root 16


 Analysing Sz ans S^2 of the pair of states...
 Ket state:  Computed S^2 = 2.097058 will be treated as 2.000000 Sz = 1.000000
WARNING! The deviation of S^2 from the correct value is large, indicating a significant spin contamination. The results may be unreliable
 Bra state:  Computed S^2 = 2.666048 will be treated as 2.000000 Sz = 1.000000
 Clebsh-Gordan coefficient: <1.000,1.000;1.000,0.000|1.000,1.000> = 0.707

_______________________________
 One-electron SO (cm-1)
 Reduced matrix elements:
 <S|| Hso(L-) ||S'> = (0.000000,0.000000)
 <S|| Hso(L0) ||S'> = (0.000000,-4.440114)
 <S|| Hso(L+) ||S'> = (0.000000,-0.000000)

 SOCC = 4.440114


 Actual matrix elements:
       |Sz=-1.00>           |Sz=0.00>           |Sz=1.00>
 <Sz=-1.00|(-0.000000,3.139635)(0.000000,-0.000000)(0.000000,-0.000000)
 <Sz=0.00|(-0.000000,-0.000000)(-0.000000,-0.000000)(0.000000,-0.000000)
 <Sz=1.00|(0.000000,-0.000000)(-0.000000,-0.000000)(-0.000000,-3.139635)
_______________________________
 Mean-field SO (cm-1)
 Reduced matrix elements:
 <S|| Hso(L-) ||S'> = (0.000000,0.000000)
 <S|| Hso(L0) ||S'> = (0.000000,-2.935929)
 <S|| Hso(L+) ||S'> = (0.000000,-0.000000)

 Singlet part of <S|| Hso(L0) ||S'> = (-0.000000,-0.004826) (excluded from all matrix elements)
 L-/L+ Averaged reduced matrix elements:
 <S|| Hso(L-) ||S'> = (0.000000,0.000000)
 <S|| Hso(L+) ||S'> = (0.000000,-0.000000)

 SOCC = 2.935929


 Actual matrix elements:
       |Sz=-1.00>           |Sz=0.00>           |Sz=1.00>
 <Sz=-1.00|(-0.000000,2.076015)(0.000000,-0.000000)(0.000000,-0.000000)
 <Sz=0.00|(-0.000000,-0.000000)(-0.000000,-0.000000)(0.000000,-0.000000)
 <Sz=1.00|(0.000000,-0.000000)(-0.000000,-0.000000)(-0.000000,-2.076015)
_______________________________

**************************************************

**************************************************
 State A: Root 0
 State B: Root 17


 Analysing Sz ans S^2 of the pair of states...
 Ket state:  Computed S^2 = 2.097058 will be treated as 2.000000 Sz = 1.000000
WARNING! The deviation of S^2 from the correct value is large, indicating a significant spin contamination. The results may be unreliable
 Bra state:  Computed S^2 = 3.433303 will be treated as 2.000000 Sz = 1.000000
 Clebsh-Gordan coefficient: <1.000,1.000;1.000,0.000|1.000,1.000> = 0.707

_______________________________
 One-electron SO (cm-1)
 Reduced matrix elements:
 <S|| Hso(L-) ||S'> = (-0.000000,-0.000000)
 <S|| Hso(L0) ||S'> = (0.000000,-3.083106)
 <S|| Hso(L+) ||S'> = (-0.000000,0.000000)

 SOCC = 3.083106


 Actual matrix elements:
       |Sz=-1.00>           |Sz=0.00>           |Sz=1.00>
 <Sz=-1.00|(0.000000,2.180085)(-0.000000,0.000000)(-0.000000,-0.000000)
 <Sz=0.00|(0.000000,0.000000)(0.000000,-0.000000)(-0.000000,0.000000)
 <Sz=1.00|(-0.000000,-0.000000)(0.000000,0.000000)(0.000000,-2.180085)
_______________________________
 Mean-field SO (cm-1)
 Reduced matrix elements:
 <S|| Hso(L-) ||S'> = (-0.000000,-0.000000)
 <S|| Hso(L0) ||S'> = (0.000000,-2.161216)
 <S|| Hso(L+) ||S'> = (-0.000000,0.000000)

 Singlet part of <S|| Hso(L0) ||S'> = (-0.000000,-0.021855) (excluded from all matrix elements)
 L-/L+ Averaged reduced matrix elements:
 <S|| Hso(L-) ||S'> = (-0.000000,-0.000000)
 <S|| Hso(L+) ||S'> = (-0.000000,0.000000)

 SOCC = 2.161216


 Actual matrix elements:
       |Sz=-1.00>           |Sz=0.00>           |Sz=1.00>
 <Sz=-1.00|(0.000000,1.528211)(-0.000000,0.000000)(-0.000000,-0.000000)
 <Sz=0.00|(0.000000,0.000000)(0.000000,-0.000000)(-0.000000,0.000000)
 <Sz=1.00|(-0.000000,-0.000000)(0.000000,0.000000)(0.000000,-1.528211)
_______________________________

**************************************************

**************************************************
 State A: Root 0
 State B: Root 18


 Analysing Sz ans S^2 of the pair of states...
 Ket state:  Computed S^2 = 2.097058 will be treated as 2.000000 Sz = 1.000000
WARNING! The deviation of S^2 from the correct value is large, indicating a significant spin contamination. The results may be unreliable
 Bra state:  Computed S^2 = 3.427996 will be treated as 2.000000 Sz = 1.000000
 Clebsh-Gordan coefficient: <1.000,1.000;1.000,0.000|1.000,1.000> = 0.707

_______________________________
 One-electron SO (cm-1)
 Reduced matrix elements:
 <S|| Hso(L-) ||S'> = (0.001365,0.827238)
 <S|| Hso(L0) ||S'> = (0.000000,-0.000000)
 <S|| Hso(L+) ||S'> = (0.001365,-0.827238)

 SOCC = 1.169893


 Actual matrix elements:
       |Sz=-1.00>           |Sz=0.00>           |Sz=1.00>
 <Sz=-1.00|(-0.000000,0.000000)(0.000965,-0.584945)(0.000000,-0.000000)
 <Sz=0.00|(-0.000965,-0.584945)(-0.000000,0.000000)(0.000965,-0.584945)
 <Sz=1.00|(0.000000,0.000000)(-0.000965,-0.584945)(-0.000000,-0.000000)
_______________________________
 Mean-field SO (cm-1)
 Reduced matrix elements:
 <S|| Hso(L-) ||S'> = (0.349271,0.539919)
 <S|| Hso(L0) ||S'> = (0.000000,0.000000)
 <S|| Hso(L+) ||S'> = (0.359483,-0.543958)

 Singlet part of <S|| Hso(L0) ||S'> = (-0.000000,-0.000000) (excluded from all matrix elements)
 L-/L+ Averaged reduced matrix elements:
 <S|| Hso(L-) ||S'> = (0.354377,0.541939)
 <S|| Hso(L+) ||S'> = (0.354377,-0.541939)

 SOCC = 0.915730


 Actual matrix elements:
       |Sz=-1.00>           |Sz=0.00>           |Sz=1.00>
 <Sz=-1.00|(-0.000000,-0.000000)(0.250582,-0.383209)(0.000000,-0.000000)
 <Sz=0.00|(-0.250582,-0.383209)(-0.000000,0.000000)(0.250582,-0.383209)
 <Sz=1.00|(0.000000,0.000000)(-0.250582,-0.383209)(-0.000000,0.000000)
_______________________________

**************************************************

**************************************************
 State A: Root 0
 State B: Root 19


 Analysing Sz ans S^2 of the pair of states...
 Ket state:  Computed S^2 = 2.097058 will be treated as 2.000000 Sz = 1.000000
 Bra state:  Computed S^2 = 2.191548 will be treated as 2.000000 Sz = 1.000000
 Clebsh-Gordan coefficient: <1.000,1.000;1.000,0.000|1.000,1.000> = 0.707

_______________________________
 One-electron SO (cm-1)
 Reduced matrix elements:
 <S|| Hso(L-) ||S'> = (-2.951576,0.117690)
[...]
 34 A    35 A    33 B    34 B    36 A    37 A    35 B    36 B                  
  0.253   0.255   0.258   0.272   0.274   0.278   0.279   0.290
 38 A    39 A    37 B    40 A    38 B    39 B    41 A    42 A                  
  0.295   0.304   0.314   0.319   0.334   0.337   0.355   0.357
 40 B    43 A    44 A    41 B    42 B    45 A    43 B    46 A                  
  0.358   0.368   0.370   0.382   0.386   0.396   0.401   0.408
 47 A    44 B    48 A    45 B    46 B    49 A    47 B    50 A                  
  0.419   0.429   0.434   0.435   0.443   0.446   0.458   0.461
 48 B    51 A    49 B    52 A    50 B    53 A    51 B    52 B                  
  0.462   0.465   0.474   0.475   0.478   0.498   0.505   0.506
 54 A    55 A    56 A    53 B    57 A    54 B    55 B    58 A                  
  0.521   0.522   0.526   0.533   0.543   0.553   0.554   0.558
 56 B    59 A    60 A    57 B    58 B    61 A    62 A    59 B                  
  0.567   0.574   0.583   0.612   0.636   0.636   0.645   0.664
 63 A    60 B    64 A    61 B    65 A    62 B    63 B    66 A                  
  0.688   0.696   0.708   0.715   0.726   0.728   0.728   0.751
 67 A    64 B    65 B    68 A    66 B    69 A    67 B    68 B                  
  0.755   0.759   0.760   0.772   0.773   0.786   0.802   0.803
 70 A    71 A    69 B    72 A    70 B    73 A    71 B    74 A                  
  0.813   0.819   0.842   0.842   0.845   0.864   0.875   0.885
 72 B    75 A    76 A    73 B    74 B    77 A    75 B    76 B                  
  0.900   0.915   0.929   0.934   0.940   0.941   0.954   0.954
 78 A    77 B    79 A    80 A    78 B    81 A    82 A    79 B                  
  0.962   0.980   1.017   1.039   1.047   1.053   1.056   1.067
 80 B    83 A    81 B    82 B    84 A    83 B    85 A    86 A                  
  1.087   1.091   1.100   1.127   1.145   1.163   1.171   1.187
 84 B    85 B    87 A    88 A    86 B    87 B    89 A    88 B                  
  1.191   1.198   1.241   1.250   1.266   1.268   1.278   1.283
 90 A    91 A    89 B    92 A    90 B    93 A    91 B    94 A                  
  1.293   1.298   1.320   1.324   1.333   1.345   1.347   1.357
 95 A    92 B    96 A    93 B    94 B    97 A    95 B    98 A                  
  1.364   1.370   1.396   1.413   1.418   1.459   1.461   1.464
 96 B    99 A    97 B   100 A    98 B    99 B   101 A   102 A                  
  1.499   1.501   1.506   1.520   1.544   1.548   1.553   1.558
103 A   100 B   104 A   101 B   105 A   102 B   103 B   106 A                  
  1.585   1.589   1.602   1.603   1.635   1.635   1.642   1.648
107 A   104 B   108 A   105 B   106 B   109 A   110 A   107 B                  
  1.660   1.686   1.693   1.713   1.713   1.722   1.738   1.738
111 A   108 B   112 A   113 A   109 B   110 B   114 A   111 B                  
  1.772   1.783   1.787   1.790   1.794   1.794   1.798   1.811
115 A   116 A   112 B   117 A   113 B   114 B   118 A   115 B                  
  1.821   1.851   1.879   1.889   1.931   1.941   1.946   1.954
119 A   120 A   116 B   117 B   121 A   118 B   122 A   119 B                  
  1.960   1.985   2.007   2.013   2.039   2.081   2.099   2.114
123 A   120 B   121 B   124 A   125 A   122 B   126 A   127 A                  
  2.117   2.121   2.147   2.160   2.172   2.182   2.198   2.216
123 B   124 B   128 A   125 B   129 A   126 B   130 A   127 B                  
  2.220   2.224   2.244   2.264   2.265   2.277   2.295   2.304
131 A   132 A   128 B   133 A   129 B   134 A   130 B   135 A                  
  2.311   2.345   2.348   2.370   2.375   2.423   2.443   2.486
131 B   136 A   132 B   133 B   137 A   134 B   138 A   135 B                  
  2.486   2.498   2.543   2.554   2.567   2.579   2.580   2.603
139 A   136 B   140 A   137 B   141 A   142 A   138 B   139 B                  
  2.636   2.658   2.665   2.667   2.690   2.698   2.710   2.713
143 A   140 B   144 A   141 B   145 A   142 B   143 B   146 A                  
  2.730   2.746   2.747   2.752   2.764   2.769   2.780   2.783
144 B   147 A   145 B   148 A   146 B   149 A   147 B   150 A                  
  2.792   2.795   2.800   2.802   2.820   2.835   2.839   2.848
148 B   151 A   152 A   149 B   150 B   153 A   151 B   154 A                  
  2.871   2.873   2.881   2.882   2.896   2.902   2.914   2.914
155 A   152 B   156 A   153 B   157 A   154 B   158 A   155 B                  
  2.928   2.943   2.951   2.951   2.959   2.960   2.975   2.984
159 A   156 B   160 A   157 B   158 B   161 A   162 A   159 B                  
  2.997   3.009   3.017   3.018   3.072   3.075   3.093   3.112
160 B   163 A   164 A   161 B   162 B   165 A   166 A   163 B                  
  3.120   3.132   3.140   3.149   3.169   3.187   3.196   3.199
167 A   164 B   168 A   165 B   169 A   166 B   170 A   167 B                  
  3.214   3.223   3.238   3.241   3.251   3.256   3.264   3.265
171 A   168 B   172 A   169 B   170 B   173 A   174 A   175 A                  
  3.273   3.291   3.299   3.304   3.309   3.321   3.324   3.344
171 B   172 B   173 B   176 A   177 A   178 A   174 B   179 A                  
  3.357   3.374   3.383   3.396   3.398   3.412   3.417   3.431
175 B   180 A   176 B   181 A   177 B   182 A   178 B   183 A                  
  3.443   3.462   3.465   3.467   3.478   3.482   3.491   3.499
179 B   180 B   181 B   184 A   182 B   185 A   183 B   186 A                  
  3.511   3.526   3.536   3.561   3.563   3.571   3.573   3.580
184 B   187 A   185 B   186 B   188 A   189 A   187 B   190 A                  
  3.587   3.593   3.601   3.621   3.633   3.640   3.651   3.656
191 A   188 B   192 A   189 B   193 A   194 A   190 B   191 B                  
  3.672   3.681   3.683   3.720   3.762   3.778   3.793   3.802
195 A   196 A   192 B   193 B   197 A   198 A   199 A   194 B                  
  3.816   3.841   3.845   3.860   3.892   3.923   3.942   3.962
195 B   196 B   200 A   197 B   201 A   202 A   198 B   199 B                  
  4.009   4.019   4.055   4.063   4.071   4.074   4.099   4.107
203 A   200 B   201 B   204 A   202 B   205 A   203 B   206 A                  
  4.131   4.149   4.176   4.206   4.232   4.232   4.269   4.270
204 B   207 A   205 B   208 A   209 A   206 B   210 A   207 B                  
  4.293   4.301   4.320   4.326   4.338   4.342   4.348   4.358
208 B   211 A   209 B   212 A   210 B   213 A   214 A   211 B                  
  4.368   4.387   4.391   4.403   4.422   4.432   4.446   4.483
215 A   212 B   216 A   213 B   214 B   217 A   218 A   215 B                  
  4.540   4.545   4.613   4.636   4.651   4.749   4.756   4.768
219 A   216 B   220 A   221 A   217 B   218 B   222 A   219 B                  
  4.776   4.801   4.805   4.823   4.857   4.878   4.918   4.987
223 A   224 A   220 B   221 B   225 A   222 B   226 A   223 B                  
  5.003   5.020   5.038   5.050   5.133   5.190   5.213   5.250
227 A   228 A   224 B   229 A   225 B   226 B   230 A   227 B                  
  5.297   5.311   5.318   5.351   5.366   5.454   5.504   5.505
228 B   229 B   231 A   232 A   230 B   233 A   231 B   234 A                  
  5.560   5.575   5.605   5.606   5.743   5.776   5.793   6.026
235 A   232 B   236 A   233 B   237 A   238 A   234 B   235 B                  
  6.285   6.456   6.504   6.634   6.904   7.084   7.136  22.396
239 A   240 A   236 B   241 A   237 B   242 A   238 B   243 A                  
 22.617  22.963  22.974  22.990  22.994  23.104  23.132  23.172
239 B   244 A   240 B   245 A   241 B   242 B   246 A   243 B                  
 23.226  23.464  23.530  23.773  44.378
247 A   248 A   244 B   249 A   250 A                                          
 
 Beta MOs, Unrestricted
 -- Occupied --                  
-19.735 -10.640 -10.610 -10.610 -10.589 -10.589 -10.588 -10.588
  1 A     2 A     1 B     3 A     2 B     4 A     3 B     5 A                  
-10.587 -10.587 -10.586 -10.586 -10.584 -10.584  -1.154  -0.986
  4 B     6 A     5 B     7 A     8 A     6 B     9 A    10 A                  
 -0.981  -0.891  -0.868  -0.865  -0.862  -0.756  -0.714  -0.707
  7 B    11 A     8 B    12 A     9 B    13 A    10 B    14 A                  
 -0.698  -0.651  -0.614  -0.593  -0.555  -0.554  -0.535  -0.529
 11 B    15 A    12 B    16 A    17 A    13 B    14 B    18 A                  
 -0.506  -0.503  -0.503  -0.502  -0.471  -0.438  -0.433  -0.428
 19 A    20 A    15 B    16 B    17 B    21 A    22 A    18 B                  
 -0.423  -0.413  -0.411  -0.320  -0.306  -0.303  -0.298
 19 B    23 A    20 B    21 B    24 A    22 B    25 A                          
 -- Virtual --                   
 -0.106  -0.035   0.016   0.024   0.034   0.080   0.086   0.103
 23 B    24 B    26 A    27 A    25 B    28 A    26 B    27 B                  
  0.103   0.112   0.115   0.127   0.138   0.138   0.142   0.154
 29 A    28 B    30 A    29 B    31 A    30 B    32 A    31 B                  
  0.174   0.181   0.188   0.207   0.208   0.230   0.234   0.242
 33 A    32 B    34 A    35 A    33 B    34 B    36 A    37 A                  
  0.247   0.254   0.257   0.258   0.260   0.275   0.276   0.281
 35 B    36 B    38 A    39 A    37 B    40 A    38 B    41 A                  
  0.284   0.297   0.300   0.310   0.321   0.323   0.338   0.339
 39 B    42 A    40 B    43 A    41 B    44 A    42 B    45 A                  
  0.360   0.361   0.362   0.372   0.373   0.384   0.389   0.398
 46 A    43 B    47 A    44 B    48 A    45 B    46 B    49 A                  
  0.409   0.411   0.426   0.433   0.435   0.438   0.450   0.450
 47 B    50 A    48 B    51 A    49 B    52 A    50 B    53 A                  
  0.460   0.463   0.465   0.466   0.475   0.481   0.482   0.500
 51 B    52 B    54 A    55 A    56 A    53 B    57 A    54 B                  
  0.507   0.508   0.523   0.526   0.527   0.536   0.544   0.553
 55 B    58 A    59 A    56 B    60 A    57 B    58 B    61 A                  
  0.558   0.561   0.570   0.578   0.590   0.618   0.640   0.645
 62 A    59 B    63 A    60 B    64 A    61 B    65 A    62 B                  
  0.649   0.665   0.691   0.698   0.716   0.718   0.729   0.732
 63 B    66 A    67 A    64 B    65 B    68 A    66 B    67 B                  
  0.732   0.755   0.757   0.762   0.763   0.776   0.779   0.788
 69 A    68 B    70 A    69 B    71 A    72 A    70 B    73 A                  
  0.805   0.805   0.815   0.824   0.845   0.850   0.851   0.869
 74 A    71 B    72 B    75 A    76 A    73 B    74 B    77 A                  
  0.881   0.890   0.905   0.919   0.931   0.938   0.942   0.942
 75 B    76 B    78 A    77 B    79 A    80 A    81 A    78 B                  
  0.956   0.958   0.964   0.982   1.022   1.046   1.050   1.056
 82 A    79 B    80 B    83 A    81 B    82 B    84 A    83 B                  
  1.059   1.073   1.091   1.092   1.103   1.128   1.148   1.167
 85 A    86 A    84 B    85 B    87 A    88 A    86 B    87 B                  
  1.176   1.190   1.195   1.204   1.249   1.255   1.267   1.272
 89 A    88 B    90 A    91 A    89 B    92 A    90 B    93 A                  
  1.280   1.285   1.296   1.300   1.323   1.327   1.335   1.348
 91 B    94 A    95 A    92 B    96 A    93 B    94 B    97 A                  
  1.349   1.359   1.367   1.372   1.400   1.419   1.426   1.461
 95 B    98 A    96 B    99 A    97 B   100 A    98 B    99 B                  
  1.468   1.470   1.503   1.504   1.517   1.523   1.547   1.549
101 A   102 A   103 A   100 B   104 A   101 B   105 A   102 B                  
  1.557   1.562   1.587   1.599   1.605   1.606   1.635   1.644
103 B   106 A   107 A   104 B   108 A   105 B   106 B   109 A                  
  1.651   1.656   1.664   1.692   1.704   1.719   1.726   1.726
107 B   110 A   111 A   108 B   112 A   109 B   113 A   110 B                  
  1.744   1.748   1.779   1.785   1.790   1.794   1.797   1.798
114 A   111 B   115 A   116 A   112 B   117 A   113 B   114 B                  
  1.801   1.815   1.824   1.863   1.881   1.895   1.936   1.945
118 A   115 B   119 A   120 A   116 B   117 B   121 A   118 B                  
  1.950   1.961   1.965   1.992   2.011   2.016   2.044   2.086
122 A   119 B   123 A   120 B   121 B   124 A   125 A   122 B                  
  2.106   2.119   2.119   2.127   2.150   2.164   2.174   2.183
126 A   127 A   123 B   124 B   128 A   125 B   129 A   126 B                  
  2.202   2.222   2.223   2.237   2.246   2.268   2.268   2.281
130 A   127 B   131 A   132 A   128 B   129 B   133 A   134 A                  
  2.306   2.310   2.313   2.347   2.350   2.374   2.378   2.429
135 A   130 B   131 B   136 A   132 B   133 B   137 A   134 B                  
  2.448   2.491   2.493   2.517   2.550   2.556   2.570   2.581
138 A   139 A   135 B   136 B   140 A   137 B   141 A   142 A                  
  2.584   2.608   2.636   2.660   2.668   2.672   2.693   2.700
138 B   139 B   143 A   140 B   144 A   141 B   145 A   142 B                  
  2.715   2.718   2.733   2.747   2.752   2.753   2.769   2.770
146 A   143 B   144 B   147 A   145 B   148 A   146 B   149 A                  
  2.783   2.786   2.794   2.797   2.803   2.810   2.827   2.837
147 B   150 A   148 B   151 A   152 A   149 B   150 B   153 A                  
  2.845   2.850   2.873   2.875   2.884   2.888   2.900   2.906
151 B   154 A   155 A   152 B   156 A   153 B   157 A   154 B                  
  2.917   2.921   2.931   2.945   2.953   2.957   2.963   2.964
158 A   155 B   159 A   156 B   160 A   157 B   158 B   161 A                  
  2.982   2.990   3.001   3.014   3.023   3.024   3.082   3.082
162 A   159 B   160 B   163 A   161 B   164 A   165 A   162 B                  
  3.099   3.116   3.124   3.137   3.152   3.156   3.174   3.190
166 A   163 B   167 A   164 B   168 A   165 B   169 A   166 B                  
  3.200   3.203   3.221   3.225   3.240   3.244   3.254   3.258
170 A   167 B   171 A   168 B   172 A   169 B   170 B   173 A                  
  3.267   3.268   3.280   3.295   3.306   3.306   3.312   3.328
174 A   175 A   171 B   172 B   176 A   173 B   177 A   174 B                  
  3.329   3.346   3.361   3.380   3.386   3.403   3.408   3.416
178 A   179 A   175 B   180 A   176 B   177 B   181 A   182 A                  
  3.420   3.434   3.449   3.468   3.470   3.471   3.482   3.485
178 B   183 A   179 B   180 B   184 A   181 B   182 B   185 A                  
  3.495   3.503   3.515   3.530   3.540   3.566   3.567   3.574
183 B   186 A   184 B   187 A   185 B   186 B   188 A   189 A                  
  3.575   3.585   3.590   3.596   3.603   3.630   3.637   3.643
187 B   190 A   191 A   188 B   192 A   189 B   193 A   194 A                  
  3.653   3.660   3.677   3.685   3.689   3.728   3.766   3.783
190 B   191 B   195 A   196 A   192 B   193 B   197 A   198 A                  
  3.795   3.803   3.821   3.849   3.851   3.864   3.896   3.927
199 A   194 B   195 B   200 A   196 B   197 B   201 A   202 A                  
  3.948   3.967   4.013   4.022   4.058   4.064   4.073   4.076
198 B   199 B   203 A   200 B   201 B   204 A   202 B   205 A                  
  4.102   4.109   4.134   4.153   4.180   4.208   4.233   4.233
203 B   206 A   204 B   207 A   205 B   208 A   209 A   206 B                  
  4.272   4.272   4.295   4.303   4.322   4.329   4.340   4.344
207 B   210 A   208 B   211 A   209 B   212 A   210 B   213 A                  
  4.350   4.360   4.370   4.389   4.396   4.406   4.423   4.434
214 A   211 B   215 A   212 B   216 A   213 B   214 B   217 A                  
  4.448   4.485   4.543   4.551   4.617   4.645   4.654   4.753
218 A   215 B   219 A   216 B   220 A   221 A   217 B   218 B                  
  4.761   4.770   4.779   4.805   4.809   4.827   4.859   4.880
222 A   219 B   223 A   224 A   220 B   221 B   225 A   222 B                  
  4.923   4.989   5.004   5.023   5.042   5.051   5.139   5.199
226 A   223 B   227 A   228 A   224 B   229 A   225 B   226 B                  
  5.216   5.294   5.314   5.325   5.354   5.358   5.374   5.466
230 A   227 B   228 B   231 A   229 B   232 A   230 B   233 A                  
  5.507   5.511   5.578   5.579   5.609   5.619   5.756   5.800
231 B   234 A   232 B   235 A   233 B   236 A   237 A   234 B                  
  5.800   6.051   6.314   6.542   6.549   6.723   6.933   7.119
238 A   235 B   239 A   236 B   240 A   241 A   237 B   242 A                  
  7.198  22.397  22.618  22.966  22.973  22.989  22.996  23.106
238 B   243 A   239 B   244 A   240 B   245 A   241 B   242 B                  
 23.135  23.171  23.225  23.469  23.531  23.776  44.403
246 A   243 B   247 A   248 A   244 B   249 A   250 A                          
 --------------------------------------------------------------
 
          Ground-State Mulliken Net Atomic Charges

     Atom                 Charge (a.u.)    Spin (a.u.)
  --------------------------------------------------------
      1 C                     0.265772       0.520986
      2 O                    -0.186407       1.034084
      3 C                     0.117436      -0.131362
      4 C                     0.117436      -0.131362
      5 C                    -0.291874       0.205262
      6 C                    -0.207091       0.223040
      7 C                    -0.115182      -0.148866
      8 C                    -0.093340      -0.139096
      9 C                    -0.137218       0.233480
     10 H                     0.163217      -0.009065
     11 H                     0.142405      -0.012538
     12 H                     0.127251       0.007408
     13 H                     0.126672       0.007120
     14 H                     0.128042      -0.012918
     15 C                    -0.291874       0.205262
     16 C                    -0.207091       0.223040
     17 C                    -0.093339      -0.139096
     18 C                    -0.115182      -0.148866
     19 C                    -0.137218       0.233480
     20 H                     0.163217      -0.009065
     21 H                     0.127251       0.007408
     22 H                     0.142405      -0.012538
     23 H                     0.126672       0.007120
     24 H                     0.128042      -0.012918
  --------------------------------------------------------
  Sum of atomic charges =    -0.000000
  Sum of spin   charges =     2.000000

 -----------------------------------------------------------------
                    Cartesian Multipole Moments
 -----------------------------------------------------------------
    Charge (ESU x 10^10)
                -0.0000
    Dipole Moment (Debye)
         X      -0.0000      Y      -0.0000      Z      -1.3226
       Tot       1.3226
    Quadrupole Moments (Debye-Ang)
        XX     -69.5872     XY      -2.0914     YY     -85.1473
        XZ       0.0000     YZ      -0.0000     ZZ     -78.1961
    Octopole Moments (Debye-Ang^2)
       XXX      -0.0000    XXY       0.0000    XYY       0.0000
       YYY       0.0000    XXZ      -1.9885    XYZ     -15.5413
       YYZ       3.4880    XZZ       0.0000    YZZ       0.0000
       ZZZ      -5.3427
    Hexadecapole Moments (Debye-Ang^3)
      XXXX   -3079.4335   XXXY     -60.7361   XXYY    -655.4875
      XYYY      -3.6643   YYYY    -204.9547   XXXZ       0.0000
      XXYZ      -0.0000   XYYZ       0.0000   YYYZ      -0.0000
      XXZZ    -640.6410   XYZZ       7.7159   YYZZ    -150.2704
      XZZZ      -0.0000   YZZZ      -0.0000   ZZZZ    -735.2956
 -----------------------------------------------------------------
 Total job time:  24116.86s(wall), 23909.85s(cpu) 
 Tue Dec  5 02:31:00 2023

        *************************************************************
        *                                                           *
        *  Thank you very much for using Q-Chem.  Have a nice day.  *
        *                                                           *
        *************************************************************


