                  Welcome to Q-Chem
     A Quantum Leap Into The Future Of Chemistry


 Q-Chem 6.0 (devel), Q-Chem, Inc., Pleasanton, CA (2022)

 E. Epifanovsky,  A. T. B. Gilbert,  Xintian Feng,  Joonho Lee,  Yuezhi Mao,  
 N. Mardirossian,  P. Pokhilko,  A. White,  M. Wormit,  M. P. Coons,  
 A. L. Dempwolff,  Zhengting Gan,  D. Hait,  P. R. Horn,  L. D. Jacobson,  
 I. Kaliman,  J. Kussmann,  A. W. Lange,  Ka Un Lao,  D. S. Levine,  Jie Liu,  
 S. C. McKenzie,  A. F. Morrison,  K. Nanda,  F. Plasser,  D. R. Rehn,  
 M. L. Vidal,  Zhi-Qiang You,  Ying Zhu,  B. Alam,  B. Albrecht,  
 A. Aldossary,  E. Alguire,  J. H. Andersen,  V. Athavale,  D. Barton,  
 K. Begam,  A. Behn,  N. Bellonzi,  Y. A. Bernard,  E. J. Berquist,  
 H. Burton,  A. Carreras,  K. Carter-Fenk,  Romit Chakraborty,  
 Chandrima Chakravarty,  Junhan Chen,  A. D. Chien,  K. D. Closser,  
 V. Cofer-Shabica,  L. Cunha,  S. Dasgupta,  Jia Deng,  M. de Wergifosse,  
 M. Diedenhofen,  Hainam Do,  S. Ehlert,  Po-Tung Fang,  S. Fatehi,  
 Qingguo Feng,  T. Friedhoff,  B. Ganoe,  J. Gayvert,  Qinghui Ge,  
 G. Gidofalvi,  M. Goldey,  J. Gomes,  C. Gonzalez-Espinoza,  S. Gulania,  
 A. Gunina,  J. A. Gyamfi,  M. W. D. Hanson-Heine,  P. H. P. Harbach,  
 A. W. Hauser,  M. F. Herbst,  M. Hernandez Vera,  M. Hodecker,  
 Z. C. Holden,  S. Houck,  Xunkun Huang,  Kerwin Hui,  B. C. Huynh,  
 K. Ikeda,  M. Ivanov,  Hyunjun Ji,  Zuxin Jin,  Hanjie Jiang,  B. Kaduk,  
 S. Kaehler,  R. Kang,  K. Khistyaev,  Jaehoon Kim,  Yongbin Kim,  
 P. Klunzinger,  Z. Koczor-Benda,  Joong Hoon Koh,  D. Kosenkov,  
 Saikiran Kotaru,  L. Koulias,  T. Kowalczyk,  C. M. Krauter,  K. Kue,  
 A. Kunitsa,  T. Kus,  A. Landau,  K. V. Lawler,  D. Lefrancois,  S. Lehtola,  
 Rain Li,  Shaozhi Li,  Yi-Pei Li,  Jiashu Liang,  M. Liebenthal,  
 Hung-Hsuan Lin,  You-Sheng Lin,  Fenglai Liu,  Kuan-Yu Liu,  
 M. Loipersberger,  A. Luenser,  C. Malbon,  A. Manjanath,  P. Manohar,  
 E. Mansoor,  S. F. Manzer,  Shan-Ping Mao,  A. V. Marenich,  T. Markovich,  
 S. Mason,  F. Matz,  S. A. Maurer,  P. F. McLaughlin,  M. F. S. J. Menger,  
 J.-M. Mewes,  S. A. Mewes,  P. Morgante,  Mohammad Mostafanejad,  
 J. W. Mullinax,  K. J. Oosterbaan,  G. Paran,  V. Parravicini,  
 Alexander C. Paul,  Suranjan K. Paul,  F. Pavosevic,  Zheng Pei,  S. Prager,  
 E. I. Proynov,  E. Ramos,  B. Rana,  A. E. Rask,  A. Rettig,  R. M. Richard,  
 F. Rob,  E. Rossomme,  T. Scheele,  M. Scheurer,  M. Schneider,  
 P. E. Schneider,  N. Sergueev,  S. M. Sharada,  Hengyuan Shen,  
 W. Skomorowski,  D. W. Small,  C. J. Stein,  Yingli Su,  Yu-Chuan Su,  
 E. J. Sundstrom,  Zhen Tao,  J. Thirman,  Hung-Yi Tsai,  T. Tsuchimochi,  
 N. M. Tubman,  C. Utku,  S. P. Veccham,  O. Vydrov,  J. Wenzel,  
 Jonathan Wong,  J. Witte,  A. Yamada,  Chou-Hsun Yang,  Kun Yao,  
 S. Yeganeh,  S. R. Yost,  A. Zech,  F. Zeller,  Igor Ying Zhang,  
 Xing Zhang,  Yu Zhang,  D. Zuev,  A. Aspuru-Guzik,  A. T. Bell,  
 N. A. Besley,  K. B. Bravaya,  B. R. Brooks,  D. Casanova,  Jeng-Da Chai,  
 Hsing-Ta Chen,  S. Coriani,  C. J. Cramer,  A. E. DePrince, III,  
 R. A. DiStasio Jr.,  A. Dreuw,  B. D. Dunietz,  T. R. Furlani,  
 W. A. Goddard III,  S. Grimme,  S. Hammes-Schiffer,  T. Head-Gordon,  
 W. J. Hehre,  Chao-Ping Hsu,  T.-C. Jagau,  Yousung Jung,  A. Klamt,  
 Jing Kong,  D. S. Lambrecht,  Xiangyuan Li,  WanZhen Liang,  N. J. Mayhall,  
 C. W. McCurdy,  J. B. Neaton,  T. Neudecker,  C. Ochsenfeld,  
 J. A. Parkhill,  R. Peverati,  V. A. Rassolov,  Haisheng Ren,  Yihan Shao,  
 L. V. Slipchenko,  R. P. Steele,  J. E. Subotnik,  A. J. W. Thom,  
 A. Tkatchenko,  D. G. Truhlar,  T. Van Voorhis,  Fan Wang,  
 T. A. Wesolowski,  K. B. Whaley,  H. L. Woodcock III,  P. M. Zimmerman,  
 S. Faraji,  P. M. W. Gill,  M. Head-Gordon,  J. M. Herbert,  A. I. Krylov

 Contributors to earlier versions of Q-Chem not listed above: 
 R. D. Adamson,  B. Austin,  R. Baer,  J. Baker,  G. J. O. Beran,  
 K. Brandhorst,  S. T. Brown,  E. F. C. Byrd,  Arup K. Chakraborty,  
 G. K. L. Chan,  Chun-Min Chang,  Yunqing Chen,  C.-L. Cheng,  
 Siu Hung Chien,  D. M. Chipman,  D. L. Crittenden,  H. Dachsel,  
 R. J. Doerksen,  A. D. Dutoi,  R. G. Edgar,  J. Fosso-Tande,  
 L. Fusti-Molnar,  D. Ghosh,  A. Ghysels,  A. Golubeva-Zadorozhnaya,  
 J. Gonthier,  M. S. Gordon,  S. R. Gwaltney,  G. Hawkins,  J. E. Herr,  
 A. Heyden,  S. Hirata,  E. G. Hohenstein,  G. Kedziora,  F. J. Keil,  
 C. Kelley,  Jihan Kim,  R. A. King,  R. Z. Khaliullin,  P. P. Korambath,  
 W. Kurlancheek,  A. Laurent,  A. M. Lee,  M. S. Lee,  S. V. Levchenko,  
 Ching Yeh Lin,  D. Liotard,  E. Livshits,  R. C. Lochan,  I. Lotan,  
 L. A. Martinez-Martinez,  P. E. Maslen,  N. Nair,  D. P. O'Neill,  
 D. Neuhauser,  E. Neuscamman,  C. M. Oana,  R. Olivares-Amaya,  R. Olson,  
 T. M. Perrine,  B. Peters,  P. A. Pieniazek,  A. Prociuk,  Y. M. Rhee,  
 J. Ritchie,  M. A. Rohrdanz,  E. Rosta,  N. J. Russ,  H. F. Schaefer III,  
 M. W. Schmidt,  N. E. Schultz,  S. Sharma,  N. Shenvi,  C. D. Sherrill,  
 A. C. Simmonett,  A. Sodt,  T. Stein,  D. Stuck,  K. S. Thanthiriwatte,  
 V. Vanovschi,  L. Vogt,  Tao Wang,  A. Warshel,  M. A. Watson,  
 C. F. Williams,  Q. Wu,  X. Xu,  Jun Yang,  W. Zhang,  Yan Zhao

   Please cite Q-Chem as follows:
  "Software for the frontiers of quantum chemistry:
   An overview of developments in the Q-Chem 5 package"
   J. Chem. Phys. 155, 084801 (2021)
   https://doi.org/10.1063/5.0055522 (open access)

 Q-Chem 6.0.1 for Intel X86 EM64T Linux

 Parts of Q-Chem use Armadillo 9.900.5 (Nocturnal Misbehaviour).
 http://arma.sourceforge.net/

 Q-Chem begins on Mon Dec  4 20:12:34 2023  

 Host: atlas-009
0

     Scratch files written to ./qchem29208//
 Processing $rem in /scratch/abel/SOFTWARE/qchem/config/preferences:
 Processing $rem in /dipc/acebg/.qchemrc:

 Checking the input file for inconsistencies... 	...done.

--------------------------------------------------------------
User input:
--------------------------------------------------------------
$comment
 TD-DFT/TDA CALCULATION
$end

$molecule
 READ fluorenone.molecule
$end

$rem
!**REFERENCE***     
JOBTYPE            SP
EXCHANGE           GEN   !gen:specify in $xc_functional
CORRELATION        NONE
BASIS              def2-TZVP 

!***SCF REFERENCE***
INPUT_BOHR          TRUE
!SKIP_SCFMAN        FALSE
!UNRESTRICTED       FALSE !rectricted-TDDFT not avail in doublets
!SCF_GUESS          core
!SCF_GUESS_MIX      FALSE
!SCF_GUESS_ALWAYS   FALSE
MAX_SCF_CYCLES     999
!SCF_CONVERGENCE    10
SCF_ALGORITHM      DIIS_GDM !DIIS,DM,DIIS_DM,GDM,DIIS_GDM,GD

!SYMMETRY           TRUE !use of symmetry for calculating integrals
!SYM_IGNORE         FALSE !turn off using symmetry
!SYM_TOL            5 !tolerance for determining point group

!THRESH             14
!SCF_FINAL_PRINT    2 !0,1,2,3

!****CIS****
CIS_N_ROOTS        50
!CIS_CONVERGENCE   10
MAX_CIS_CYCLES     200
!CIS_SINGLETS      true
!CIS_TRIPLETS      true
CALC_SOC           2 !not available in doublets in TDDFT
!RPA                FALSE !RPA=1 TDA calc used as guess of TDDFT

!Spin-orbit coupling calculations are implemented for
!restricted, unrestricted CIS/TDDFT, and SF TDDFT
!using Wigner-Eckart theorem: Try CALC_SOC = 2.

!****MEMORY****
!MEM_TOTAL          80000        !Default 2000 MB
!MEM_STATIC         25000         !Default 64 MB

!**Molecular Properties and Analysis **
!POP_MULLIKEN       FALSE   !Run Mulliken population analysis
!LOWDIN_POPULATION  FALSE  !Run Löwdin population analysis
!GUI                0
!STATE_ANALYSIS     TRUE
!MOLDEN_FORMAT      FALSE
!PRINT_ORBITALS     5
$end

$xc_functional
!**50-50 functional**
X  HF    0.50
X  S     0.08
X  B     0.42
C  VWN   0.19
C  LYP   0.81
$end

--------------------------------------------------------------
 ----------------------------------------------------------------
             Standard Nuclear Orientation (Bohr)
    I     Atom           X                Y                Z
 ----------------------------------------------------------------
    1      C      -0.0000000000    -0.0000000000     3.0318066276
    2      O      -0.0000000000    -0.0000000000     5.3638644743
    3      C      -2.1864624130    -0.0000000000     1.3211263669
    4      C       2.1864624130     0.0000000000     1.3211263669
    5      C       1.3222785792     0.0000000000    -1.3152461482
    6      C       4.7555386627     0.0000000000     1.8776505802
    7      C       6.4695983050     0.0000000000    -0.0972082822
    8      C       3.1392439890     0.0000000000    -3.3016694193
    9      C       5.6496513315     0.0000000000    -2.6924387954
   10      H       5.3730975132     0.0000000000     3.8295121100
   11      H       2.5395104465     0.0000000000    -5.2593503586
   12      H       8.4790954600     0.0000000000     0.2945733557
   13      H       7.0667355415     0.0000000000    -4.1688986988
   14      C      -1.3222785792    -0.0000000000    -1.3152461482
   15      C      -4.7555386627    -0.0000000000     1.8776505802
   16      C      -3.1392439890    -0.0000000000    -3.3016694193
   17      C      -6.4695983050    -0.0000000000    -0.0972082822
   18      C      -5.6496513315    -0.0000000000    -2.6924387954
   19      H      -2.5395104465    -0.0000000000    -5.2593503586
   20      H      -5.3730975132    -0.0000000000     3.8295121100
   21      H      -8.4790954600    -0.0000000000     0.2945733557
   22      H      -7.0667355415    -0.0000000000    -4.1688986988
 ----------------------------------------------------------------
 Molecular Point Group                 C2v   NOp =  4
 Largest Abelian Subgroup              C2v   NOp =  4
 Nuclear Repulsion Energy =         775.12034816 hartrees
 There are       48 alpha and       46 beta electrons
 Requested basis set is def2-TZVP
 There are 186 shells and 482 basis functions

 Total QAlloc Memory Limit   2000 MB
 Mega-Array Size       188 MB
 MEM_STATIC part       192 MB

 A cutoff of  1.0D-12 yielded  14392 shell pairs
 There are     97856 function pairs (    127798 Cartesian)
 Smallest overlap matrix eigenvalue = 7.88E-06

 Scale SEOQF with 1.000000e-01/1.000000e+00/1.000000e-01

 Standard Electronic Orientation quadrupole field applied
 Nucleus-field energy     =    -0.0000000045 hartrees
 Guess from superposition of atomic densities
 Warning:  Energy on first SCF cycle will be non-variational
 SAD guess density has 94.000000 electrons

 -----------------------------------------------------------------------
  General SCF calculation program by
  Eric Jon Sundstrom, Paul Horn, Yuezhi Mao, Dmitri Zuev, Alec White,
  David Stuck, Shaama M.S., Shane Yost, Joonho Lee, David Small,
  Daniel Levine, Susi Lehtola, Hugh Burton, Evgeny Epifanovsky,
  Bang C. Huynh
 -----------------------------------------------------------------------
 Exchange:     0.5000 Hartree-Fock + 0.0800 Slater + 0.4200 B88
 Correlation:  0.1900 VWN5 + 0.8100 LYP
 Using SG-1 standard quadrature grid
 A unrestricted SCF calculation will be
 performed using DIIS, GDM
 SCF converges when RMS gradient is below 1.0e-08
 ---------------------------------------
  Cycle       Energy         DIIS error
 ---------------------------------------
    1    -579.6397823756      1.36e-02  
    2    -574.9760409402      1.15e-03  Done DIIS. Switching to GDM
 ---------------------------------------
  Cycle       Energy        RMS Gradient
 ---------------------------------------
    1    -574.9760409402      2.25e-01   Descent step
    2    -575.1070821940      5.41e-02   Normal BFGS step
    3    -575.1284039338      3.76e-02   Normal BFGS step
    4    -575.1382751822      1.24e-02   Normal BFGS step
    5    -575.1393161785      1.09e-02   Normal BFGS step
    6    -575.1400429628      4.36e-03   Normal BFGS step
    7    -575.1403607110      2.57e-03   Normal BFGS step
    8    -575.1404361330      2.30e-03   Normal BFGS step
    9    -575.1404688496      1.84e-03   Normal BFGS step
   10    -575.1404903604      9.53e-04   Normal BFGS step
   11    -575.1404984438      5.57e-04   Normal BFGS step
   12    -575.1405003681      2.79e-04   Normal BFGS step
   13    -575.1405009810      1.08e-04   Normal BFGS step
   14    -575.1405010315      5.70e-05   Normal BFGS step
   15    -575.1405010752      1.30e-05   Normal BFGS step
   16    -575.1405010772      9.11e-06   Normal BFGS step
   17    -575.1405010782      4.12e-06   Normal BFGS step
   18    -575.1405010783      2.14e-06   Normal BFGS step
   19    -575.1405010782      9.97e-07   Normal BFGS step
   20    -575.1405010781      4.26e-07   Normal BFGS step
  GDM::WARNING energy changes are now smaller than effective accuracy.
  GDM::        calculation will continue, but THRESH should be increased
  GDM::        or SCF_CONVERGENCE decreased. 
  GDM::        effective_thresh = 4.09e-09
   21    -575.1405010778      1.79e-07   Normal BFGS step
  GDM::WARNING energy changes are now smaller than effective accuracy.
  GDM::        calculation will continue, but THRESH should be increased
  GDM::        or SCF_CONVERGENCE decreased. 
  GDM::        effective_thresh = 4.09e-09
   22    -575.1405010776      9.56e-08   Normal BFGS step
  GDM::WARNING energy changes are now smaller than effective accuracy.
  GDM::        calculation will continue, but THRESH should be increased
  GDM::        or SCF_CONVERGENCE decreased. 
  GDM::        effective_thresh = 4.09e-09
   23    -575.1405010774      1.11e-07   Normal BFGS step
   24    -575.1405010783      2.04e-08   Normal BFGS step
  GDM::WARNING energy changes are now smaller than effective accuracy.
  GDM::        calculation will continue, but THRESH should be increased
  GDM::        or SCF_CONVERGENCE decreased. 
  GDM::        effective_thresh = 4.09e-09
   25    -575.1405010779      1.03e-08   Normal BFGS step
   26    -575.1405010782      5.33e-09  Convergence criterion met
 ---------------------------------------
 SCF time:   CPU 1564.61s  wall 1573.00s 
<S^2> =          2.082851558
 SCF   energy in the final basis set =     -575.1405010782
 Total energy in the final basis set =     -575.1405010782
 

 CIS/TDDFT memory preview:
 --------------------------
	NOV = NOa*NVa + NOb*NVb = 40888
	NRoots = 50, max iter = 200, max vectors = 10000
	Size of each subspace vector: 0.31 Mb
	Davidson algorithm may add up to 2 x NOV x NRoots (= 31.2 Mb) per iteration
	Max memory = 6239.0 Mb (worst case scenario)
	Currently available memory = 2000.0 Mb

	In case of problems:
	(a) increase memory (MEM_TOTAL = 6240 can hold 10000 subspace vectors), or
	(b) request fewer states (CIS_N_ROOTS = 16 will fit in current MEM_TOTAL), or
	(c) reduce MAX_CIS_SUBSPACE (= 3205 will fit in current MEM_TOTAL).
	Reducing MAX_CIS_SUBSPACE may hamper convergence.

 Direct TDDFT/TDA calculation will be performed
 Exchange:     0.5000 Hartree-Fock + 0.0800 Slater + 0.4200 B88
 Correlation:  0.1900 VWN5 + 0.8100 LYP
 Using SG-1 standard quadrature grid
 CIS energy converged when residual is below 10e- 6
 ---------------------------------------------------
 Iter    Rts Conv    Rts Left    Ttl Dev     Max Dev
 ---------------------------------------------------
   1         0          50      0.017274    0.001144
   2         0          50      0.004811    0.000205
   3         0          50      0.002439    0.000317
   4         0          50      0.001471    0.000333
   5        18          32      0.000680    0.000180
   6        36          14      0.000256    0.000057
   7        41           9      0.000083    0.000019
   8        45           5      0.000035    0.000006
   9        49           1      0.000020    0.000002
  10        50           0      0.000018    0.000001    Roots Converged
 ---------------------------------------------------
 
 ---------------------------------------------------
         TDDFT/TDA Excitation Energies              
 ---------------------------------------------------

 Excited state   1: excitation energy (eV) =    1.6888
 Total energy for state  1:                  -575.07843715 au
    <S**2>     :  2.2083
    Trans. Mom.: -0.4794 X  -0.0000 Y  -0.0000 Z
    Strength   :     0.0095095734
    S(    2) --> V(    2) amplitude = -0.4102 alpha
    D(   46) --> S(    1) amplitude =  0.8827 beta

 Excited state   2: excitation energy (eV) =    1.8861
 Total energy for state  2:                  -575.07118823 au
    <S**2>     :  2.2445
    Trans. Mom.: -0.0000 X   0.0000 Y   0.2738 Z
    Strength   :     0.0034632093
    S(    2) --> V(    1) amplitude =  0.7945 alpha
    D(   44) --> S(    1) amplitude =  0.5633 beta

 Excited state   3: excitation energy (eV) =    2.1516
 Total energy for state  3:                  -575.06143159 au
    <S**2>     :  2.0918
    Trans. Mom.:  0.0000 X  -0.0222 Y  -0.0000 Z
    Strength   :     0.0000260087
    D(   45) --> S(    1) amplitude =  0.9834 beta

 Excited state   4: excitation energy (eV) =    2.3644
 Total energy for state  4:                  -575.05361057 au
    <S**2>     :  2.0888
    Trans. Mom.:  0.0000 X   0.0000 Y  -0.5729 Z
    Strength   :     0.0190140923
    S(    2) --> V(    1) amplitude = -0.5744 alpha
    D(   44) --> S(    1) amplitude =  0.7940 beta

 Excited state   5: excitation energy (eV) =    2.4280
 Total energy for state  5:                  -575.05127426 au
    <S**2>     :  2.1244
    Trans. Mom.:  0.3413 X   0.0000 Y   0.0000 Z
    Strength   :     0.0069282293
    S(    2) --> V(    2) amplitude =  0.3638 alpha
    S(    2) --> V(    3) amplitude =  0.2175 alpha
    D(   43) --> S(    1) amplitude =  0.8431 beta
    D(   46) --> S(    1) amplitude =  0.2509 beta

 Excited state   6: excitation energy (eV) =    2.7741
 Total energy for state  6:                  -575.03855342 au
    <S**2>     :  2.2788
    Trans. Mom.:  0.0000 X   0.0000 Y  -0.0000 Z
    Strength   :     0.0000000000
    D(   45) --> S(    2) amplitude =  0.9383 beta
    D(   45) --> V(    8) amplitude =  0.2545 beta

 Excited state   7: excitation energy (eV) =    3.1944
 Total energy for state  7:                  -575.02311043 au
    <S**2>     :  2.2746
    Trans. Mom.: -1.4127 X  -0.0000 Y   0.0000 Z
    Strength   :     0.1561794603
    S(    1) --> V(    1) amplitude =  0.2904 alpha
    S(    2) --> V(    2) amplitude =  0.7047 alpha
    S(    2) --> V(    3) amplitude = -0.4236 alpha
    D(   43) --> S(    1) amplitude = -0.2271 beta
    D(   46) --> S(    1) amplitude =  0.3029 beta

 Excited state   8: excitation energy (eV) =    3.9447
 Total energy for state  8:                  -574.99553542 au
    <S**2>     :  2.5993
    Trans. Mom.: -0.0000 X   0.0000 Y  -0.3778 Z
    Strength   :     0.0137911641
    D(   44) --> V(    1) amplitude =  0.1970 alpha
    D(   45) --> V(    2) amplitude =  0.2333 alpha
    S(    2) --> V(    5) amplitude =  0.4936 alpha
    D(   41) --> S(    1) amplitude = -0.3246 beta
    D(   44) --> V(    2) amplitude = -0.2089 beta
    D(   46) --> S(    2) amplitude =  0.6293 beta
    D(   46) --> V(    1) amplitude =  0.1836 beta

 Excited state   9: excitation energy (eV) =    4.1320
 Total energy for state  9:                  -574.98865456 au
    <S**2>     :  2.2115
    Trans. Mom.: -1.5973 X   0.0000 Y   0.0000 Z
    Strength   :     0.2582762537
    S(    1) --> V(    1) amplitude =  0.2554 alpha
    S(    2) --> V(    2) amplitude =  0.2366 alpha
    S(    2) --> V(    3) amplitude =  0.8175 alpha
    D(   43) --> S(    1) amplitude = -0.3562 beta

 Excited state  10: excitation energy (eV) =    4.3927
 Total energy for state 10:                  -574.97907392 au
    <S**2>     :  2.5194
    Trans. Mom.: -0.0567 X  -0.0000 Y  -0.0000 Z
    Strength   :     0.0003464079
    D(   44) --> V(    2) amplitude = -0.1872 alpha
    D(   45) --> V(    1) amplitude = -0.2370 alpha
    S(    1) --> V(    1) amplitude = -0.4145 alpha
    S(    2) --> V(    3) amplitude =  0.1878 alpha
    D(   36) --> S(    1) amplitude = -0.1761 beta
    D(   42) --> S(    1) amplitude =  0.6367 beta
    D(   44) --> S(    2) amplitude =  0.3361 beta
    D(   46) --> V(    2) amplitude = -0.2174 beta

 Excited state  11: excitation energy (eV) =    4.4546
 Total energy for state 11:                  -574.97679762 au
    <S**2>     :  2.3050
    Trans. Mom.: -0.0000 X  -0.0000 Y  -0.7104 Z
    Strength   :     0.0550750137
    S(    1) --> V(    2) amplitude =  0.3228 alpha
    S(    1) --> V(    3) amplitude =  0.2007 alpha
    S(    2) --> V(    5) amplitude = -0.2596 alpha
    D(   41) --> S(    1) amplitude =  0.5176 beta
    D(   43) --> S(    2) amplitude = -0.1765 beta
    D(   43) --> V(    1) amplitude =  0.2245 beta
    D(   46) --> S(    2) amplitude =  0.5621 beta

 Excited state  12: excitation energy (eV) =    4.5887
 Total energy for state 12:                  -574.97186777 au
    <S**2>     :  2.1283
    Trans. Mom.: -0.0000 X   0.0501 Y   0.0000 Z
    Strength   :     0.0002816532
    D(   40) --> S(    1) amplitude =  0.9689 beta

 Excited state  13: excitation energy (eV) =    4.6565
 Total energy for state 13:                  -574.96937610 au
    <S**2>     :  2.1303
    Trans. Mom.: -0.0000 X  -0.0000 Y   0.0000 Z
    Strength   :     0.0000000000
    D(   38) --> S(    1) amplitude =  0.1602 beta
    D(   39) --> S(    1) amplitude =  0.9582 beta

 Excited state  14: excitation energy (eV) =    4.8364
 Total energy for state 14:                  -574.96276502 au
    <S**2>     :  2.4433
    Trans. Mom.:  0.1594 X  -0.0000 Y   0.0000 Z
    Strength   :     0.0030123019
    D(   45) --> V(    1) amplitude = -0.2119 alpha
    D(   42) --> S(    1) amplitude = -0.6386 beta
    D(   44) --> S(    2) amplitude =  0.6386 beta
    D(   44) --> V(    1) amplitude =  0.1501 beta

 Excited state  15: excitation energy (eV) =    4.9297
 Total energy for state 15:                  -574.95933835 au
    <S**2>     :  2.9002
    Trans. Mom.:  1.5431 X   0.0000 Y   0.0000 Z
    Strength   :     0.2875926200
    D(   44) --> V(    2) amplitude = -0.1788 alpha
    D(   45) --> V(    1) amplitude = -0.4268 alpha
    S(    1) --> V(    1) amplitude =  0.5786 alpha
    S(    2) --> V(    2) amplitude = -0.2615 alpha
    D(   43) --> S(    1) amplitude =  0.2133 beta
    D(   44) --> S(    2) amplitude = -0.1962 beta
    D(   44) --> V(    1) amplitude =  0.3944 beta

 Excited state  16: excitation energy (eV) =    5.0621
 Total energy for state 16:                  -574.95447276 au
    <S**2>     :  2.2472
    Trans. Mom.:  0.0000 X  -0.0000 Y   0.0211 Z
    Strength   :     0.0000552062
    D(   45) --> V(    2) amplitude = -0.2001 alpha
    S(    1) --> V(    2) amplitude = -0.4858 alpha
    S(    2) --> V(    5) amplitude =  0.5305 alpha
    S(    2) --> V(   15) amplitude =  0.1505 alpha
    D(   41) --> S(    1) amplitude =  0.4580 beta
    D(   43) --> S(    2) amplitude =  0.2800 beta

 Excited state  17: excitation energy (eV) =    5.1755
 Total energy for state 17:                  -574.95030600 au
    <S**2>     :  2.2031
    Trans. Mom.:  0.0000 X   0.0346 Y   0.0000 Z
    Strength   :     0.0001513826
    S(    2) --> V(    4) amplitude =  0.9827 alpha

 Excited state  18: excitation energy (eV) =    5.2156
 Total energy for state 18:                  -574.94883194 au
    <S**2>     :  3.4689
    Trans. Mom.: -0.0000 X  -0.0000 Y   0.2393 Z
    Strength   :     0.0073155261
    D(   43) --> V(    1) amplitude =  0.2286 alpha
    D(   44) --> V(    1) amplitude =  0.4302 alpha
    D(   45) --> V(    2) amplitude =  0.1740 alpha
    D(   45) --> V(    3) amplitude = -0.2446 alpha
    S(    1) --> V(    2) amplitude = -0.1962 alpha
    D(   41) --> S(    1) amplitude =  0.1924 beta
    D(   43) --> V(    1) amplitude =  0.3914 beta
    D(   44) --> V(    2) amplitude = -0.2028 beta
    D(   44) --> V(    4) amplitude = -0.2200 beta
    D(   46) --> S(    2) amplitude = -0.2219 beta
    D(   46) --> V(    1) amplitude =  0.4540 beta

 Excited state  19: excitation energy (eV) =    5.3427
 Total energy for state 19:                  -574.94415978 au
    <S**2>     :  2.2015
    Trans. Mom.:  0.0000 X   0.0000 Y  -0.4459 Z
    Strength   :     0.0260197462
    S(    1) --> V(    3) amplitude = -0.2079 alpha
    S(    2) --> V(    5) amplitude = -0.3999 alpha
    D(   43) --> S(    2) amplitude =  0.8121 beta
    D(   46) --> V(    1) amplitude = -0.1974 beta

 Excited state  20: excitation energy (eV) =    5.3481
 Total energy for state 20:                  -574.94396128 au
    <S**2>     :  3.0816
    Trans. Mom.: -0.0000 X   0.0000 Y  -0.0000 Z
    Strength   :     0.0000000000
    D(   46) --> V(    1) amplitude =  0.9386 alpha
    D(   46) --> V(    5) amplitude =  0.2920 alpha

 Excited state  21: excitation energy (eV) =    5.5374
 Total energy for state 21:                  -574.93700377 au
    <S**2>     :  2.1991
    Trans. Mom.:  0.0000 X   0.0000 Y  -0.0000 Z
    Strength   :     0.0000000000
    S(    2) --> V(    6) amplitude =  0.9655 alpha
    D(   38) --> S(    1) amplitude = -0.1610 beta

 Excited state  22: excitation energy (eV) =    5.5482
 Total energy for state 22:                  -574.93660737 au
    <S**2>     :  2.4492
    Trans. Mom.:  2.7263 X   0.0000 Y   0.0000 Z
    Strength   :     1.0103391053
    D(   45) --> V(    1) amplitude =  0.2780 alpha
    S(    1) --> V(    1) amplitude =  0.5152 alpha
    S(    2) --> V(    2) amplitude = -0.1768 alpha
    D(   42) --> S(    1) amplitude =  0.2200 beta
    D(   44) --> S(    2) amplitude =  0.4901 beta
    D(   44) --> V(    1) amplitude = -0.3653 beta
    D(   46) --> S(    1) amplitude = -0.1558 beta

 Excited state  23: excitation energy (eV) =    5.5878
 Total energy for state 23:                  -574.93515496 au
    <S**2>     :  2.1929
    Trans. Mom.:  0.0000 X   0.0000 Y  -0.0000 Z
    Strength   :     0.0000000000
    S(    2) --> V(    6) amplitude =  0.1708 alpha
    D(   38) --> S(    1) amplitude =  0.9014 beta
    D(   45) --> V(    1) amplitude =  0.2401 beta

 Excited state  24: excitation energy (eV) =    5.7031
 Total energy for state 24:                  -574.93091424 au
    <S**2>     :  2.7765
    Trans. Mom.:  0.0000 X   0.0000 Y  -0.9074 Z
    Strength   :     0.1150559433
    D(   43) --> V(    1) amplitude = -0.1586 alpha
    S(    1) --> V(    2) amplitude = -0.3711 alpha
    S(    1) --> V(    3) amplitude = -0.2306 alpha
    S(    2) --> V(    5) amplitude = -0.3550 alpha
    D(   42) --> S(    2) amplitude =  0.3262 beta
    D(   43) --> S(    2) amplitude = -0.1760 beta
    D(   43) --> V(    1) amplitude = -0.1924 beta
    D(   46) --> S(    2) amplitude =  0.2099 beta
    D(   46) --> V(    1) amplitude =  0.5278 beta

 Excited state  25: excitation energy (eV) =    5.7856
 Total energy for state 25:                  -574.92788274 au
    <S**2>     :  2.6696
    Trans. Mom.: -0.0000 X   0.0000 Y   0.7756 Z
    Strength   :     0.0852672641
    D(   43) --> V(    1) amplitude = -0.2063 alpha
    S(    1) --> V(    2) amplitude =  0.4711 alpha
    S(    1) --> V(    3) amplitude = -0.2205 alpha
    D(   41) --> S(    1) amplitude =  0.4373 beta
    D(   42) --> S(    2) amplitude = -0.1543 beta
    D(   43) --> S(    2) amplitude =  0.2017 beta
    D(   43) --> V(    1) amplitude = -0.3970 beta
    D(   46) --> V(    1) amplitude =  0.4348 beta

 Excited state  26: excitation energy (eV) =    5.8111
 Total energy for state 26:                  -574.92694541 au
    <S**2>     :  2.1497
    Trans. Mom.:  0.0000 X   0.0442 Y   0.0000 Z
    Strength   :     0.0002777825
    S(    2) --> V(    7) amplitude = -0.1675 alpha
    D(   37) --> S(    1) amplitude =  0.9431 beta

 Excited state  27: excitation energy (eV) =    5.9124
 Total energy for state 27:                  -574.92322430 au
    <S**2>     :  2.1733
    Trans. Mom.:  0.0000 X  -0.0737 Y   0.0000 Z
    Strength   :     0.0007858887
    S(    2) --> V(    7) amplitude =  0.9605 alpha
    D(   37) --> S(    1) amplitude =  0.1678 beta

 Excited state  28: excitation energy (eV) =    5.9901
 Total energy for state 28:                  -574.92037023 au
    <S**2>     :  2.6854
    Trans. Mom.:  0.8004 X   0.0000 Y  -0.0000 Z
    Strength   :     0.0940108363
    D(   43) --> V(    3) amplitude =  0.1506 alpha
    D(   44) --> V(    2) amplitude =  0.2781 alpha
    D(   45) --> V(    1) amplitude = -0.1698 alpha
    D(   45) --> V(    5) amplitude = -0.1766 alpha
    S(    2) --> V(   17) amplitude = -0.2096 alpha
    D(   36) --> S(    1) amplitude =  0.6512 beta
    D(   41) --> V(    1) amplitude = -0.2039 beta
    D(   42) --> S(    1) amplitude =  0.2731 beta
    D(   43) --> V(    4) amplitude = -0.1637 beta
    D(   44) --> S(    2) amplitude =  0.3100 beta
    D(   46) --> V(    2) amplitude =  0.1951 beta

 Excited state  29: excitation energy (eV) =    6.0965
 Total energy for state 29:                  -574.91646062 au
    <S**2>     :  2.8440
    Trans. Mom.: -0.0000 X  -0.0000 Y   0.2608 Z
    Strength   :     0.0101603145
    D(   44) --> V(    1) amplitude =  0.3768 alpha
    D(   44) --> V(    5) amplitude =  0.2011 alpha
    D(   45) --> V(    2) amplitude = -0.4158 alpha
    D(   45) --> V(    3) amplitude = -0.1916 alpha
    S(    1) --> V(    2) amplitude =  0.3115 alpha
    D(   41) --> S(    1) amplitude = -0.2218 beta
    D(   42) --> S(    2) amplitude =  0.4696 beta
    D(   44) --> V(    2) amplitude =  0.2006 beta
    D(   46) --> S(    2) amplitude = -0.2203 beta
    D(   46) --> V(    8) amplitude =  0.1833 beta

 Excited state  30: excitation energy (eV) =    6.1187
 Total energy for state 30:                  -574.91564120 au
    <S**2>     :  2.1368
    Trans. Mom.: -0.0000 X  -0.0298 Y  -0.0000 Z
    Strength   :     0.0001332716
    S(    2) --> V(    9) amplitude =  0.5833 alpha
    S(    2) --> V(   10) amplitude =  0.6647 alpha
    S(    2) --> V(   12) amplitude =  0.4229 alpha

 Excited state  31: excitation energy (eV) =    6.1313
 Total energy for state 31:                  -574.91518024 au
    <S**2>     :  2.8268
    Trans. Mom.:  0.0000 X   0.0000 Y  -0.0000 Z
    Strength   :     0.0000000000
    D(   38) --> S(    1) amplitude = -0.2377 beta
    D(   45) --> V(    1) amplitude =  0.9306 beta

 Excited state  32: excitation energy (eV) =    6.4598
 Total energy for state 32:                  -574.90310869 au
    <S**2>     :  2.1929
    Trans. Mom.: -0.0000 X  -0.0000 Y  -0.0000 Z
    Strength   :     0.0000000000
    S(    2) --> V(    8) amplitude =  0.9749 alpha

 Excited state  33: excitation energy (eV) =    6.4753
 Total energy for state 33:                  -574.90253825 au
    <S**2>     :  3.3319
    Trans. Mom.:  0.0000 X   0.0362 Y  -0.0000 Z
    Strength   :     0.0002080417
    D(   46) --> V(    2) amplitude =  0.9490 alpha

 Excited state  34: excitation energy (eV) =    6.5539
 Total energy for state 34:                  -574.89964980 au
    <S**2>     :  2.3924
    Trans. Mom.:  1.3935 X  -0.0000 Y   0.0000 Z
    Strength   :     0.3117770841
    D(   45) --> V(    1) amplitude =  0.6039 alpha
    D(   36) --> S(    1) amplitude =  0.2984 beta
    D(   41) --> S(    2) amplitude =  0.1675 beta
    D(   43) --> V(    2) amplitude =  0.1770 beta
    D(   44) --> V(    1) amplitude =  0.4869 beta
    D(   46) --> V(    2) amplitude = -0.3866 beta

 Excited state  35: excitation energy (eV) =    6.5605
 Total energy for state 35:                  -574.89940709 au
    <S**2>     :  2.4037
    Trans. Mom.:  0.0000 X   0.0000 Y  -0.1646 Z
    Strength   :     0.0043570884
    D(   45) --> V(    2) amplitude =  0.4650 alpha
    D(   45) --> V(    3) amplitude =  0.1550 alpha
    S(    1) --> V(    3) amplitude =  0.5690 alpha
    D(   42) --> S(    2) amplitude =  0.3945 beta
    D(   43) --> V(    1) amplitude = -0.3176 beta

 Excited state  36: excitation energy (eV) =    6.5819
 Total energy for state 36:                  -574.89861988 au
    <S**2>     :  2.1980
    Trans. Mom.: -0.0000 X   0.1205 Y   0.0000 Z
    Strength   :     0.0023408733
    S(    2) --> V(    9) amplitude =  0.7608 alpha
    S(    2) --> V(   10) amplitude = -0.5705 alpha

 Excited state  37: excitation energy (eV) =    6.5826
 Total energy for state 37:                  -574.89859499 au
    <S**2>     :  2.2886
    Trans. Mom.:  0.0000 X   0.0000 Y   0.0000 Z
    Strength   :     0.0000000000
    D(   33) --> S(    1) amplitude = -0.4020 beta
    D(   35) --> S(    1) amplitude =  0.7911 beta
    D(   40) --> V(    1) amplitude =  0.2167 beta

 Excited state  38: excitation energy (eV) =    6.5992
 Total energy for state 38:                  -574.89798595 au
    <S**2>     :  3.0206
    Trans. Mom.:  0.0901 X   0.0000 Y   0.0000 Z
    Strength   :     0.0013124624
    D(   43) --> V(    2) amplitude = -0.3996 alpha
    D(   44) --> V(    2) amplitude =  0.2012 alpha
    D(   45) --> V(    1) amplitude =  0.2291 alpha
    S(    1) --> V(    5) amplitude = -0.3548 alpha
    D(   36) --> S(    1) amplitude = -0.1973 beta
    D(   41) --> S(    2) amplitude = -0.2464 beta
    D(   43) --> V(    2) amplitude = -0.1755 beta
    D(   44) --> V(    1) amplitude =  0.4594 beta
    D(   46) --> V(    2) amplitude =  0.3586 beta
    D(   46) --> V(    4) amplitude = -0.2543 beta

 Excited state  39: excitation energy (eV) =    6.7780
 Total energy for state 39:                  -574.89141534 au
    <S**2>     :  2.3419
    Trans. Mom.: -0.0000 X  -0.0275 Y   0.0000 Z
    Strength   :     0.0001253522
    D(   34) --> S(    1) amplitude =  0.8795 beta
    D(   39) --> V(    1) amplitude =  0.2488 beta

 Excited state  40: excitation energy (eV) =    6.8701
 Total energy for state 40:                  -574.88802980 au
    <S**2>     :  2.2889
    Trans. Mom.: -0.0000 X  -0.0275 Y   0.0000 Z
    Strength   :     0.0001269552
    D(   46) --> V(    2) amplitude =  0.1923 alpha
    S(    2) --> V(   10) amplitude = -0.1569 alpha
    S(    2) --> V(   12) amplitude =  0.3208 alpha
    D(   35) --> S(    2) amplitude = -0.3567 beta
    D(   38) --> S(    2) amplitude =  0.2042 beta
    D(   39) --> S(    2) amplitude = -0.6084 beta
    D(   45) --> V(    2) amplitude =  0.4162 beta

 Excited state  41: excitation energy (eV) =    6.9028
 Total energy for state 41:                  -574.88682782 au
    <S**2>     :  2.1781
    Trans. Mom.: -0.0000 X  -0.0003 Y  -0.0000 Z
    Strength   :     0.0000000143
    S(    2) --> V(   10) amplitude = -0.3561 alpha
    S(    2) --> V(   12) amplitude =  0.7969 alpha
    S(    2) --> V(   16) amplitude = -0.1917 alpha
    D(   39) --> S(    2) amplitude =  0.2491 beta
    D(   45) --> V(    2) amplitude = -0.2080 beta

 Excited state  42: excitation energy (eV) =    6.9122
 Total energy for state 42:                  -574.88648166 au
    <S**2>     :  2.4013
    Trans. Mom.:  0.0000 X   0.0000 Y  -0.9885 Z
    Strength   :     0.1654664530
    D(   43) --> V(    1) amplitude = -0.2127 alpha
    D(   44) --> V(    1) amplitude =  0.6255 alpha
    S(    1) --> V(    2) amplitude = -0.2466 alpha
    D(   41) --> S(    1) amplitude =  0.2082 beta
    D(   43) --> S(    2) amplitude = -0.2107 beta
    D(   43) --> V(    1) amplitude = -0.3718 beta
    D(   44) --> V(    2) amplitude = -0.1711 beta
    D(   46) --> V(    1) amplitude = -0.3568 beta

 Excited state  43: excitation energy (eV) =    7.1620
 Total energy for state 43:                  -574.87730172 au
    <S**2>     :  2.3680
    Trans. Mom.: -0.0000 X  -0.0000 Y   0.0000 Z
    Strength   :     0.0000000000
    S(    2) --> V(   11) amplitude = -0.2078 alpha
    S(    2) --> V(   13) amplitude =  0.2202 alpha
    D(   33) --> S(    1) amplitude =  0.1610 beta
    D(   39) --> V(    2) amplitude =  0.1778 beta
    D(   40) --> S(    2) amplitude = -0.8102 beta
    D(   45) --> V(    8) amplitude =  0.1551 beta

 Excited state  44: excitation energy (eV) =    7.1908
 Total energy for state 44:                  -574.87624406 au
    <S**2>     :  2.1899
    Trans. Mom.:  0.0000 X  -0.0000 Y  -0.0000 Z
    Strength   :     0.0000000000
    S(    2) --> V(   11) amplitude = -0.6448 alpha
    S(    2) --> V(   13) amplitude =  0.6749 alpha
    D(   40) --> S(    2) amplitude =  0.2511 beta

 Excited state  45: excitation energy (eV) =    7.1921
 Total energy for state 45:                  -574.87619442 au
    <S**2>     :  2.7753
    Trans. Mom.:  0.0000 X   0.0794 Y  -0.0000 Z
    Strength   :     0.0011114714
    D(   32) --> S(    1) amplitude = -0.2312 beta
    D(   35) --> S(    2) amplitude =  0.2263 beta
    D(   39) --> S(    2) amplitude =  0.4073 beta
    D(   45) --> V(    2) amplitude =  0.7587 beta
    D(   45) --> V(    4) amplitude =  0.1706 beta

 Excited state  46: excitation energy (eV) =    7.2127
 Total energy for state 46:                  -574.87543764 au
    <S**2>     :  2.7372
    Trans. Mom.: -0.7525 X   0.0000 Y   0.0000 Z
    Strength   :     0.1000548591
    D(   43) --> V(    2) amplitude = -0.2430 alpha
    D(   44) --> V(    2) amplitude = -0.2388 alpha
    S(    1) --> V(    5) amplitude = -0.5144 alpha
    D(   36) --> S(    1) amplitude =  0.4903 beta
    D(   41) --> V(    1) amplitude =  0.1633 beta
    D(   43) --> V(    2) amplitude = -0.1895 beta
    D(   43) --> V(    4) amplitude =  0.2537 beta
    D(   44) --> V(    1) amplitude = -0.1842 beta
    D(   46) --> V(    2) amplitude = -0.2018 beta

 Excited state  47: excitation energy (eV) =    7.3050
 Total energy for state 47:                  -574.87204549 au
    <S**2>     :  2.1769
    Trans. Mom.: -0.0000 X  -0.0000 Y  -0.0000 Z
    Strength   :     0.0000000000
    S(    2) --> V(   11) amplitude =  0.7044 alpha
    S(    2) --> V(   13) amplitude =  0.6745 alpha

 Excited state  48: excitation energy (eV) =    7.3098
 Total energy for state 48:                  -574.87186912 au
    <S**2>     :  2.5549
    Trans. Mom.:  0.0000 X   0.0000 Y  -0.2967 Z
    Strength   :     0.0157668015
    D(   43) --> V(    1) amplitude =  0.5585 alpha
    D(   45) --> V(    2) amplitude =  0.3623 alpha
    S(    1) --> V(    3) amplitude = -0.4805 alpha
    S(    2) --> V(   15) amplitude =  0.3003 alpha
    D(   43) --> V(    1) amplitude = -0.2586 beta

 Excited state  49: excitation energy (eV) =    7.3266
 Total energy for state 49:                  -574.87125236 au
    <S**2>     :  2.7306
    Trans. Mom.:  0.0000 X  -0.0000 Y  -0.7105 Z
    Strength   :     0.0906234389
    D(   44) --> V(    1) amplitude =  0.2859 alpha
    S(    1) --> V(    3) amplitude =  0.3053 alpha
    D(   41) --> S(    1) amplitude = -0.1778 beta
    D(   42) --> S(    2) amplitude = -0.4625 beta
    D(   43) --> V(    1) amplitude = -0.2530 beta
    D(   44) --> V(    2) amplitude =  0.5203 beta
    D(   44) --> V(    4) amplitude = -0.1655 beta
    D(   46) --> S(    2) amplitude =  0.2224 beta

 Excited state  50: excitation energy (eV) =    7.3953
 Total energy for state 50:                  -574.86872702 au
    <S**2>     :  3.6265
    Trans. Mom.:  0.4498 X  -0.0000 Y   0.0000 Z
    Strength   :     0.0366577848
    D(   40) --> V(    1) amplitude =  0.2721 alpha
    D(   43) --> V(    2) amplitude =  0.1697 alpha
    D(   43) --> V(    3) amplitude = -0.2165 alpha
    D(   44) --> V(    2) amplitude =  0.5583 alpha
    D(   45) --> V(    1) amplitude = -0.2324 alpha
    S(    2) --> V(   17) amplitude =  0.1572 alpha
    D(   41) --> S(    2) amplitude =  0.2711 beta
    D(   41) --> V(    1) amplitude =  0.2660 beta
    D(   43) --> V(    2) amplitude =  0.3413 beta
    D(   43) --> V(    4) amplitude =  0.1853 beta
    D(   44) --> S(    2) amplitude =  0.1720 beta
 
 ---------------------------------------------------
  SETman timing summary (seconds)
  CPU time             14152.31s
  System time              0.00s
  Wall time            14248.57s



            *********SPIN-ORBIT COUPLING JOB USING WIGNER–ECKART THEOREM BEGINS HERE*********

 Calculating one electron integrals:  Completed calculation of one electron integrals!
 Calculating MF integrals:  Completed calculation of MF integrals!
 Calculating S^2 values of the spin-states: S^2 values computed!
 Computing transition densities and evaluating SOCME with Libwe: 

**************************************************
 State A: Root 0
 State B: Root 1


 Analysing Sz ans S^2 of the pair of states...
 Ket state:  Computed S^2 = 2.0828515582 will be treated as 2.0000000000 Sz = 1.0000000000
 Bra state:  Computed S^2 = 2.2082621511 will be treated as 2.0000000000 Sz = 1.0000000000
 Clebsh-Gordan coefficient: <1.000,1.000;1.000,0.000|1.000,1.000> = 0.707

_______________________________
 One-electron SO (cm-1)
 Reduced matrix elements:
 <S|| Hso(L-) ||S'> = (-1.394098,-0.000000)
 <S|| Hso(L0) ||S'> = (0.000000,0.000000)
 <S|| Hso(L+) ||S'> = (-1.394098,0.000000)

 SOCC = 1.971552


 Actual matrix elements:
       |Sz=-1.00>           |Sz=0.00>           |Sz=1.00>
 <Sz=-1.00|(0.000000,-0.000000)(-0.985776,0.000000)(-0.000000,0.000000)
 <Sz=0.00|(0.985776,0.000000)(0.000000,-0.000000)(-0.985776,0.000000)
 <Sz=1.00|(-0.000000,-0.000000)(0.985776,0.000000)(0.000000,0.000000)
_______________________________
 Mean-field SO (cm-1)
 Reduced matrix elements:
 <S|| Hso(L-) ||S'> = (-0.013138,-0.000000)
 <S|| Hso(L0) ||S'> = (0.000000,-0.000000)
 <S|| Hso(L+) ||S'> = (-0.015260,0.000000)

 Singlet part of <S|| Hso(L0) ||S'> = (0.000000,0.000000) (excluded from all matrix elements)
 L-/L+ Averaged reduced matrix elements:
 <S|| Hso(L-) ||S'> = (-0.014199,-0.000000)
 <S|| Hso(L+) ||S'> = (-0.014199,0.000000)

 SOCC = 0.020080


 Actual matrix elements:
       |Sz=-1.00>           |Sz=0.00>           |Sz=1.00>
 <Sz=-1.00|(0.000000,0.000000)(-0.010040,0.000000)(-0.000000,0.000000)
 <Sz=0.00|(0.010040,0.000000)(0.000000,-0.000000)(-0.010040,0.000000)
 <Sz=1.00|(-0.000000,-0.000000)(0.010040,0.000000)(0.000000,-0.000000)
_______________________________

**************************************************

**************************************************
 State A: Root 0
 State B: Root 2


 Analysing Sz ans S^2 of the pair of states...
 Ket state:  Computed S^2 = 2.082852 will be treated as 2.000000 Sz = 1.000000
 Bra state:  Computed S^2 = 2.244452 will be treated as 2.000000 Sz = 1.000000
 Clebsh-Gordan coefficient: <1.000,1.000;1.000,0.000|1.000,1.000> = 0.707

_______________________________
 One-electron SO (cm-1)
 Reduced matrix elements:
 <S|| Hso(L-) ||S'> = (0.000000,-0.000000)
 <S|| Hso(L0) ||S'> = (0.000000,-0.000000)
 <S|| Hso(L+) ||S'> = (0.000000,0.000000)

 SOCC = 0.000000


 Actual matrix elements:
       |Sz=-1.00>           |Sz=0.00>           |Sz=1.00>
 <Sz=-1.00|(-0.000000,0.000000)(0.000000,0.000000)(0.000000,0.000000)
 <Sz=0.00|(-0.000000,0.000000)(-0.000000,-0.000000)(0.000000,0.000000)
 <Sz=1.00|(0.000000,-0.000000)(-0.000000,0.000000)(-0.000000,-0.000000)
_______________________________
 Mean-field SO (cm-1)
 Reduced matrix elements:
 <S|| Hso(L-) ||S'> = (0.000000,-0.000000)
 <S|| Hso(L0) ||S'> = (0.000000,-0.000000)
 <S|| Hso(L+) ||S'> = (0.000000,0.000000)

 Singlet part of <S|| Hso(L0) ||S'> = (-0.000000,-0.000000) (excluded from all matrix elements)
 L-/L+ Averaged reduced matrix elements:
 <S|| Hso(L-) ||S'> = (0.000000,-0.000000)
 <S|| Hso(L+) ||S'> = (0.000000,0.000000)

 SOCC = 0.000000


 Actual matrix elements:
       |Sz=-1.00>           |Sz=0.00>           |Sz=1.00>
 <Sz=-1.00|(-0.000000,0.000000)(0.000000,0.000000)(0.000000,0.000000)
 <Sz=0.00|(-0.000000,0.000000)(-0.000000,-0.000000)(0.000000,0.000000)
 <Sz=1.00|(0.000000,-0.000000)(-0.000000,0.000000)(-0.000000,-0.000000)
_______________________________

**************************************************

**************************************************
 State A: Root 0
 State B: Root 3


 Analysing Sz ans S^2 of the pair of states...
 Ket state:  Computed S^2 = 2.082852 will be treated as 2.000000 Sz = 1.000000
 Bra state:  Computed S^2 = 2.091804 will be treated as 2.000000 Sz = 1.000000
 Clebsh-Gordan coefficient: <1.000,1.000;1.000,0.000|1.000,1.000> = 0.707

_______________________________
 One-electron SO (cm-1)
 Reduced matrix elements:
 <S|| Hso(L-) ||S'> = (0.000000,-4.600195)
 <S|| Hso(L0) ||S'> = (0.000000,-0.000000)
 <S|| Hso(L+) ||S'> = (0.000000,4.600195)

 SOCC = 6.505658


 Actual matrix elements:
       |Sz=-1.00>           |Sz=0.00>           |Sz=1.00>
 <Sz=-1.00|(-0.000000,0.000000)(0.000000,3.252829)(0.000000,0.000000)
 <Sz=0.00|(-0.000000,3.252829)(-0.000000,-0.000000)(0.000000,3.252829)
 <Sz=1.00|(0.000000,-0.000000)(-0.000000,3.252829)(-0.000000,-0.000000)
_______________________________
 Mean-field SO (cm-1)
 Reduced matrix elements:
 <S|| Hso(L-) ||S'> = (-0.000000,-2.330641)
 <S|| Hso(L0) ||S'> = (0.000000,-0.000000)
 <S|| Hso(L+) ||S'> = (-0.000000,2.351938)

 Singlet part of <S|| Hso(L0) ||S'> = (-0.000000,-0.000000) (excluded from all matrix elements)
 L-/L+ Averaged reduced matrix elements:
 <S|| Hso(L-) ||S'> = (-0.000000,-2.341289)
 <S|| Hso(L+) ||S'> = (-0.000000,2.341289)

 SOCC = 3.311083


 Actual matrix elements:
       |Sz=-1.00>           |Sz=0.00>           |Sz=1.00>
 <Sz=-1.00|(0.000000,0.000000)(-0.000000,1.655542)(-0.000000,0.000000)
 <Sz=0.00|(0.000000,1.655542)(0.000000,-0.000000)(-0.000000,1.655542)
 <Sz=1.00|(-0.000000,-0.000000)(0.000000,1.655542)(0.000000,-0.000000)
_______________________________

**************************************************

**************************************************
 State A: Root 0
 State B: Root 4


 Analysing Sz ans S^2 of the pair of states...
 Ket state:  Computed S^2 = 2.082852 will be treated as 2.000000 Sz = 1.000000
 Bra state:  Computed S^2 = 2.088833 will be treated as 2.000000 Sz = 1.000000
 Clebsh-Gordan coefficient: <1.000,1.000;1.000,0.000|1.000,1.000> = 0.707

_______________________________
 One-electron SO (cm-1)
 Reduced matrix elements:
 <S|| Hso(L-) ||S'> = (-0.000000,-0.000000)
 <S|| Hso(L0) ||S'> = (0.000000,0.000000)
 <S|| Hso(L+) ||S'> = (-0.000000,0.000000)

 SOCC = 0.000000


 Actual matrix elements:
       |Sz=-1.00>           |Sz=0.00>           |Sz=1.00>
 <Sz=-1.00|(0.000000,-0.000000)(-0.000000,0.000000)(-0.000000,0.000000)
 <Sz=0.00|(0.000000,0.000000)(0.000000,-0.000000)(-0.000000,0.000000)
 <Sz=1.00|(-0.000000,0.000000)(0.000000,0.000000)(0.000000,0.000000)
_______________________________
 Mean-field SO (cm-1)
 Reduced matrix elements:
 <S|| Hso(L-) ||S'> = (-0.000000,-0.000000)
 <S|| Hso(L0) ||S'> = (0.000000,0.000000)
 <S|| Hso(L+) ||S'> = (-0.000000,0.000000)

 Singlet part of <S|| Hso(L0) ||S'> = (0.000000,0.000000) (excluded from all matrix elements)
 L-/L+ Averaged reduced matrix elements:
 <S|| Hso(L-) ||S'> = (-0.000000,-0.000000)
 <S|| Hso(L+) ||S'> = (-0.000000,0.000000)

 SOCC = 0.000000


 Actual matrix elements:
       |Sz=-1.00>           |Sz=0.00>           |Sz=1.00>
 <Sz=-1.00|(0.000000,-0.000000)(-0.000000,0.000000)(-0.000000,0.000000)
 <Sz=0.00|(0.000000,0.000000)(0.000000,-0.000000)(-0.000000,0.000000)
 <Sz=1.00|(-0.000000,0.000000)(0.000000,0.000000)(0.000000,0.000000)
_______________________________

**************************************************

**************************************************
 State A: Root 0
 State B: Root 5


 Analysing Sz ans S^2 of the pair of states...
 Ket state:  Computed S^2 = 2.082852 will be treated as 2.000000 Sz = 1.000000
 Bra state:  Computed S^2 = 2.124367 will be treated as 2.000000 Sz = 1.000000
 Clebsh-Gordan coefficient: <1.000,1.000;1.000,0.000|1.000,1.000> = 0.707

_______________________________
 One-electron SO (cm-1)
 Reduced matrix elements:
 <S|| Hso(L-) ||S'> = (-0.573190,0.000000)
 <S|| Hso(L0) ||S'> = (0.000000,-0.000000)
 <S|| Hso(L+) ||S'> = (-0.573190,-0.000000)

 SOCC = 0.810613


 Actual matrix elements:
       |Sz=-1.00>           |Sz=0.00>           |Sz=1.00>
 <Sz=-1.00|(0.000000,0.000000)(-0.405306,-0.000000)(-0.000000,-0.000000)
 <Sz=0.00|(0.405306,-0.000000)(0.000000,0.000000)(-0.405306,-0.000000)
 <Sz=1.00|(-0.000000,0.000000)(0.405306,-0.000000)(0.000000,-0.000000)
_______________________________
 Mean-field SO (cm-1)
 Reduced matrix elements:
 <S|| Hso(L-) ||S'> = (-0.043439,0.000000)
 <S|| Hso(L0) ||S'> = (0.000000,-0.000000)
 <S|| Hso(L+) ||S'> = (-0.052327,-0.000000)

 Singlet part of <S|| Hso(L0) ||S'> = (0.000000,0.000000) (excluded from all matrix elements)
 L-/L+ Averaged reduced matrix elements:
 <S|| Hso(L-) ||S'> = (-0.047883,0.000000)
 <S|| Hso(L+) ||S'> = (-0.047883,-0.000000)

 SOCC = 0.067717


 Actual matrix elements:
       |Sz=-1.00>           |Sz=0.00>           |Sz=1.00>
 <Sz=-1.00|(0.000000,0.000000)(-0.033859,-0.000000)(-0.000000,-0.000000)
 <Sz=0.00|(0.033859,-0.000000)(0.000000,0.000000)(-0.033859,-0.000000)
 <Sz=1.00|(-0.000000,0.000000)(0.033859,-0.000000)(0.000000,-0.000000)
_______________________________

**************************************************

**************************************************
 State A: Root 0
 State B: Root 6


 Analysing Sz ans S^2 of the pair of states...
 Ket state:  Computed S^2 = 2.082852 will be treated as 2.000000 Sz = 1.000000
 Bra state:  Computed S^2 = 2.278765 will be treated as 2.000000 Sz = 1.000000
 Clebsh-Gordan coefficient: <1.000,1.000;1.000,0.000|1.000,1.000> = 0.707

_______________________________
 One-electron SO (cm-1)
 Reduced matrix elements:
 <S|| Hso(L-) ||S'> = (-0.000000,0.000000)
 <S|| Hso(L0) ||S'> = (0.000000,-90.865068)
 <S|| Hso(L+) ||S'> = (-0.000000,-0.000000)

 SOCC = 90.865068


 Actual matrix elements:
       |Sz=-1.00>           |Sz=0.00>           |Sz=1.00>
 <Sz=-1.00|(0.000000,64.251306)(-0.000000,-0.000000)(-0.000000,-0.000000)
 <Sz=0.00|(0.000000,-0.000000)(0.000000,-0.000000)(-0.000000,-0.000000)
 <Sz=1.00|(-0.000000,-0.000000)(0.000000,-0.000000)(0.000000,-64.251306)
_______________________________
 Mean-field SO (cm-1)
 Reduced matrix elements:
 <S|| Hso(L-) ||S'> = (-0.000000,0.000000)
 <S|| Hso(L0) ||S'> = (0.000000,-57.888036)
 <S|| Hso(L+) ||S'> = (-0.000000,-0.000000)

 Singlet part of <S|| Hso(L0) ||S'> = (-0.000000,-0.091950) (excluded from all matrix elements)
 L-/L+ Averaged reduced matrix elements:
 <S|| Hso(L-) ||S'> = (-0.000000,0.000000)
 <S|| Hso(L+) ||S'> = (-0.000000,-0.000000)

 SOCC = 57.888036


 Actual matrix elements:
       |Sz=-1.00>           |Sz=0.00>           |Sz=1.00>
 <Sz=-1.00|(0.000000,40.933023)(-0.000000,-0.000000)(-0.000000,-0.000000)
 <Sz=0.00|(0.000000,-0.000000)(0.000000,-0.000000)(-0.000000,-0.000000)
 <Sz=1.00|(-0.000000,-0.000000)(0.000000,-0.000000)(0.000000,-40.933023)
_______________________________

**************************************************

**************************************************
 State A: Root 0
 State B: Root 7


 Analysing Sz ans S^2 of the pair of states...
 Ket state:  Computed S^2 = 2.082852 will be treated as 2.000000 Sz = 1.000000
 Bra state:  Computed S^2 = 2.274553 will be treated as 2.000000 Sz = 1.000000
 Clebsh-Gordan coefficient: <1.000,1.000;1.000,0.000|1.000,1.000> = 0.707

_______________________________
 One-electron SO (cm-1)
 Reduced matrix elements:
 <S|| Hso(L-) ||S'> = (1.217457,0.000000)
 <S|| Hso(L0) ||S'> = (0.000000,0.000000)
 <S|| Hso(L+) ||S'> = (1.217457,-0.000000)

 SOCC = 1.721745


 Actual matrix elements:
       |Sz=-1.00>           |Sz=0.00>           |Sz=1.00>
 <Sz=-1.00|(-0.000000,-0.000000)(0.860872,-0.000000)(0.000000,-0.000000)
 <Sz=0.00|(-0.860872,-0.000000)(-0.000000,0.000000)(0.860872,-0.000000)
 <Sz=1.00|(0.000000,0.000000)(-0.860872,-0.000000)(-0.000000,0.000000)
_______________________________
 Mean-field SO (cm-1)
 Reduced matrix elements:
 <S|| Hso(L-) ||S'> = (-0.120410,0.000000)
 <S|| Hso(L0) ||S'> = (0.000000,0.000000)
 <S|| Hso(L+) ||S'> = (-0.130234,-0.000000)

 Singlet part of <S|| Hso(L0) ||S'> = (0.000000,0.000000) (excluded from all matrix elements)
 L-/L+ Averaged reduced matrix elements:
 <S|| Hso(L-) ||S'> = (-0.125322,0.000000)
 <S|| Hso(L+) ||S'> = (-0.125322,-0.000000)

 SOCC = 0.177232


 Actual matrix elements:
       |Sz=-1.00>           |Sz=0.00>           |Sz=1.00>
 <Sz=-1.00|(0.000000,-0.000000)(-0.088616,-0.000000)(-0.000000,-0.000000)
 <Sz=0.00|(0.088616,-0.000000)(0.000000,0.000000)(-0.088616,-0.000000)
 <Sz=1.00|(-0.000000,0.000000)(0.088616,-0.000000)(0.000000,0.000000)
_______________________________

**************************************************

**************************************************
 State A: Root 0
 State B: Root 8


 Analysing Sz ans S^2 of the pair of states...
 Ket state:  Computed S^2 = 2.082852 will be treated as 2.000000 Sz = 1.000000
WARNING! The deviation of S^2 from the correct value is large, indicating a significant spin contamination. The results may be unreliable
 Bra state:  Computed S^2 = 2.599255 will be treated as 2.000000 Sz = 1.000000
 Clebsh-Gordan coefficient: <1.000,1.000;1.000,0.000|1.000,1.000> = 0.707

_______________________________
 One-electron SO (cm-1)
 Reduced matrix elements:
 <S|| Hso(L-) ||S'> = (0.000000,-0.000000)
 <S|| Hso(L0) ||S'> = (0.000000,0.000000)
 <S|| Hso(L+) ||S'> = (0.000000,0.000000)

 SOCC = 0.000000


 Actual matrix elements:
       |Sz=-1.00>           |Sz=0.00>           |Sz=1.00>
 <Sz=-1.00|(-0.000000,-0.000000)(0.000000,0.000000)(0.000000,0.000000)
 <Sz=0.00|(-0.000000,0.000000)(-0.000000,-0.000000)(0.000000,0.000000)
 <Sz=1.00|(0.000000,0.000000)(-0.000000,0.000000)(-0.000000,0.000000)
_______________________________
 Mean-field SO (cm-1)
 Reduced matrix elements:
 <S|| Hso(L-) ||S'> = (0.000000,-0.000000)
 <S|| Hso(L0) ||S'> = (0.000000,0.000000)
 <S|| Hso(L+) ||S'> = (0.000000,0.000000)

 Singlet part of <S|| Hso(L0) ||S'> = (0.000000,0.000000) (excluded from all matrix elements)
 L-/L+ Averaged reduced matrix elements:
 <S|| Hso(L-) ||S'> = (0.000000,-0.000000)
 <S|| Hso(L+) ||S'> = (0.000000,0.000000)

 SOCC = 0.000000


 Actual matrix elements:
       |Sz=-1.00>           |Sz=0.00>           |Sz=1.00>
 <Sz=-1.00|(-0.000000,-0.000000)(0.000000,0.000000)(0.000000,0.000000)
 <Sz=0.00|(-0.000000,0.000000)(-0.000000,-0.000000)(0.000000,0.000000)
 <Sz=1.00|(0.000000,0.000000)(-0.000000,0.000000)(-0.000000,0.000000)
_______________________________

**************************************************

**************************************************
 State A: Root 0
 State B: Root 9


 Analysing Sz ans S^2 of the pair of states...
 Ket state:  Computed S^2 = 2.082852 will be treated as 2.000000 Sz = 1.000000
 Bra state:  Computed S^2 = 2.211453 will be treated as 2.000000 Sz = 1.000000
 Clebsh-Gordan coefficient: <1.000,1.000;1.000,0.000|1.000,1.000> = 0.707

_______________________________
 One-electron SO (cm-1)
 Reduced matrix elements:
 <S|| Hso(L-) ||S'> = (-0.606242,0.000000)
 <S|| Hso(L0) ||S'> = (0.000000,0.000000)
 <S|| Hso(L+) ||S'> = (-0.606242,-0.000000)

 SOCC = 0.857356


 Actual matrix elements:
       |Sz=-1.00>           |Sz=0.00>           |Sz=1.00>
 <Sz=-1.00|(0.000000,-0.000000)(-0.428678,-0.000000)(-0.000000,-0.000000)
 <Sz=0.00|(0.428678,-0.000000)(0.000000,0.000000)(-0.428678,-0.000000)
 <Sz=1.00|(-0.000000,0.000000)(0.428678,-0.000000)(0.000000,0.000000)
_______________________________
 Mean-field SO (cm-1)
 Reduced matrix elements:
 <S|| Hso(L-) ||S'> = (0.062916,0.000000)
 <S|| Hso(L0) ||S'> = (0.000000,0.000000)
 <S|| Hso(L+) ||S'> = (0.065025,-0.000000)

 Singlet part of <S|| Hso(L0) ||S'> = (0.000000,0.000000) (excluded from all matrix elements)
 L-/L+ Averaged reduced matrix elements:
 <S|| Hso(L-) ||S'> = (0.063970,0.000000)
 <S|| Hso(L+) ||S'> = (0.063970,-0.000000)

 SOCC = 0.090468


 Actual matrix elements:
       |Sz=-1.00>           |Sz=0.00>           |Sz=1.00>
 <Sz=-1.00|(-0.000000,-0.000000)(0.045234,-0.000000)(0.000000,-0.000000)
 <Sz=0.00|(-0.045234,-0.000000)(-0.000000,0.000000)(0.045234,-0.000000)
 <Sz=1.00|(0.000000,0.000000)(-0.045234,-0.000000)(-0.000000,0.000000)
_______________________________

**************************************************

**************************************************
 State A: Root 0
 State B: Root 10


 Analysing Sz ans S^2 of the pair of states...
 Ket state:  Computed S^2 = 2.082852 will be treated as 2.000000 Sz = 1.000000
WARNING! The deviation of S^2 from the correct value is large, indicating a significant spin contamination. The results may be unreliable
 Bra state:  Computed S^2 = 2.519444 will be treated as 2.000000 Sz = 1.000000
 Clebsh-Gordan coefficient: <1.000,1.000;1.000,0.000|1.000,1.000> = 0.707

_______________________________
 One-electron SO (cm-1)
 Reduced matrix elements:
 <S|| Hso(L-) ||S'> = (-0.190904,0.000000)
 <S|| Hso(L0) ||S'> = (0.000000,-0.000000)
 <S|| Hso(L+) ||S'> = (-0.190904,-0.000000)

 SOCC = 0.269979


 Actual matrix elements:
       |Sz=-1.00>           |Sz=0.00>           |Sz=1.00>
 <Sz=-1.00|(0.000000,0.000000)(-0.134989,-0.000000)(-0.000000,-0.000000)
 <Sz=0.00|(0.134989,-0.000000)(0.000000,0.000000)(-0.134989,-0.000000)
 <Sz=1.00|(-0.000000,0.000000)(0.134989,-0.000000)(0.000000,-0.000000)
_______________________________
 Mean-field SO (cm-1)
 Reduced matrix elements:
 <S|| Hso(L-) ||S'> = (0.032556,0.000000)
 <S|| Hso(L0) ||S'> = (0.000000,-0.000000)
 <S|| Hso(L+) ||S'> = (0.043487,-0.000000)

 Singlet part of <S|| Hso(L0) ||S'> = (0.000000,0.000000) (excluded from all matrix elements)
 L-/L+ Averaged reduced matrix elements:
 <S|| Hso(L-) ||S'> = (0.038022,0.000000)
 <S|| Hso(L+) ||S'> = (0.038022,-0.000000)

 SOCC = 0.053771


 Actual matrix elements:
       |Sz=-1.00>           |Sz=0.00>           |Sz=1.00>
 <Sz=-1.00|(-0.000000,0.000000)(0.026885,-0.000000)(0.000000,-0.000000)
 <Sz=0.00|(-0.026885,-0.000000)(-0.000000,0.000000)(0.026885,-0.000000)
 <Sz=1.00|(0.000000,0.000000)(-0.026885,-0.000000)(-0.000000,-0.000000)
_______________________________

**************************************************

**************************************************
 State A: Root 0
 State B: Root 11


 Analysing Sz ans S^2 of the pair of states...
 Ket state:  Computed S^2 = 2.082852 will be treated as 2.000000 Sz = 1.000000
 Bra state:  Computed S^2 = 2.305041 will be treated as 2.000000 Sz = 1.000000
 Clebsh-Gordan coefficient: <1.000,1.000;1.000,0.000|1.000,1.000> = 0.707

_______________________________
 One-electron SO (cm-1)
 Reduced matrix elements:
 <S|| Hso(L-) ||S'> = (0.000000,-0.000000)
 <S|| Hso(L0) ||S'> = (0.000000,0.000000)
 <S|| Hso(L+) ||S'> = (0.000000,0.000000)

 SOCC = 0.000000


 Actual matrix elements:
       |Sz=-1.00>           |Sz=0.00>           |Sz=1.00>
 <Sz=-1.00|(-0.000000,-0.000000)(0.000000,0.000000)(0.000000,0.000000)
 <Sz=0.00|(-0.000000,0.000000)(-0.000000,-0.000000)(0.000000,0.000000)
 <Sz=1.00|(0.000000,0.000000)(-0.000000,0.000000)(-0.000000,0.000000)
_______________________________
 Mean-field SO (cm-1)
 Reduced matrix elements:
 <S|| Hso(L-) ||S'> = (0.000000,-0.000000)
 <S|| Hso(L0) ||S'> = (0.000000,0.000000)
 <S|| Hso(L+) ||S'> = (0.000000,0.000000)

 Singlet part of <S|| Hso(L0) ||S'> = (0.000000,0.000000) (excluded from all matrix elements)
 L-/L+ Averaged reduced matrix elements:
 <S|| Hso(L-) ||S'> = (0.000000,-0.000000)
 <S|| Hso(L+) ||S'> = (0.000000,0.000000)

 SOCC = 0.000000


 Actual matrix elements:
       |Sz=-1.00>           |Sz=0.00>           |Sz=1.00>
 <Sz=-1.00|(-0.000000,-0.000000)(0.000000,0.000000)(0.000000,0.000000)
 <Sz=0.00|(-0.000000,0.000000)(-0.000000,-0.000000)(0.000000,0.000000)
 <Sz=1.00|(0.000000,0.000000)(-0.000000,0.000000)(-0.000000,0.000000)
_______________________________

**************************************************

**************************************************
 State A: Root 0
 State B: Root 12


 Analysing Sz ans S^2 of the pair of states...
 Ket state:  Computed S^2 = 2.082852 will be treated as 2.000000 Sz = 1.000000
 Bra state:  Computed S^2 = 2.128284 will be treated as 2.000000 Sz = 1.000000
 Clebsh-Gordan coefficient: <1.000,1.000;1.000,0.000|1.000,1.000> = 0.707

_______________________________
 One-electron SO (cm-1)
 Reduced matrix elements:
 <S|| Hso(L-) ||S'> = (0.000000,-1.038840)
 <S|| Hso(L0) ||S'> = (0.000000,0.000000)
 <S|| Hso(L+) ||S'> = (0.000000,1.038840)

 SOCC = 1.469141


 Actual matrix elements:
       |Sz=-1.00>           |Sz=0.00>           |Sz=1.00>
 <Sz=-1.00|(-0.000000,-0.000000)(0.000000,0.734571)(0.000000,0.000000)
 <Sz=0.00|(-0.000000,0.734571)(-0.000000,-0.000000)(0.000000,0.734571)
 <Sz=1.00|(0.000000,-0.000000)(-0.000000,0.734571)(-0.000000,0.000000)
_______________________________
 Mean-field SO (cm-1)
 Reduced matrix elements:
 <S|| Hso(L-) ||S'> = (-0.000000,-0.426023)
 <S|| Hso(L0) ||S'> = (0.000000,0.000000)
 <S|| Hso(L+) ||S'> = (-0.000000,0.415566)

 Singlet part of <S|| Hso(L0) ||S'> = (0.000000,0.000000) (excluded from all matrix elements)
 L-/L+ Averaged reduced matrix elements:
 <S|| Hso(L-) ||S'> = (-0.000000,-0.420794)
 <S|| Hso(L+) ||S'> = (-0.000000,0.420794)

 SOCC = 0.595093


 Actual matrix elements:
       |Sz=-1.00>           |Sz=0.00>           |Sz=1.00>
 <Sz=-1.00|(0.000000,-0.000000)(-0.000000,0.297547)(-0.000000,0.000000)
 <Sz=0.00|(0.000000,0.297547)(0.000000,-0.000000)(-0.000000,0.297547)
 <Sz=1.00|(-0.000000,-0.000000)(0.000000,0.297547)(0.000000,0.000000)
_______________________________

**************************************************

**************************************************
 State A: Root 0
 State B: Root 13


 Analysing Sz ans S^2 of the pair of states...
 Ket state:  Computed S^2 = 2.082852 will be treated as 2.000000 Sz = 1.000000
 Bra state:  Computed S^2 = 2.130341 will be treated as 2.000000 Sz = 1.000000
 Clebsh-Gordan coefficient: <1.000,1.000;1.000,0.000|1.000,1.000> = 0.707

_______________________________
 One-electron SO (cm-1)
 Reduced matrix elements:
 <S|| Hso(L-) ||S'> = (0.000000,0.000000)
 <S|| Hso(L0) ||S'> = (0.000000,2.624717)
 <S|| Hso(L+) ||S'> = (0.000000,-0.000000)

 SOCC = 2.624717


 Actual matrix elements:
       |Sz=-1.00>           |Sz=0.00>           |Sz=1.00>
 <Sz=-1.00|(-0.000000,-1.855955)(0.000000,-0.000000)(0.000000,0.000000)
 <Sz=0.00|(-0.000000,-0.000000)(-0.000000,0.000000)(0.000000,-0.000000)
 <Sz=1.00|(0.000000,0.000000)(-0.000000,-0.000000)(-0.000000,1.855955)
_______________________________
 Mean-field SO (cm-1)
 Reduced matrix elements:
 <S|| Hso(L-) ||S'> = (-0.000000,0.000000)
 <S|| Hso(L0) ||S'> = (0.000000,1.499476)
 <S|| Hso(L+) ||S'> = (-0.000000,-0.000000)

 Singlet part of <S|| Hso(L0) ||S'> = (-0.000000,-0.002731) (excluded from all matrix elements)
 L-/L+ Averaged reduced matrix elements:
 <S|| Hso(L-) ||S'> = (-0.000000,0.000000)
 <S|| Hso(L+) ||S'> = (-0.000000,-0.000000)

 SOCC = 1.499476


 Actual matrix elements:
       |Sz=-1.00>           |Sz=0.00>           |Sz=1.00>
 <Sz=-1.00|(0.000000,-1.060290)(-0.000000,-0.000000)(-0.000000,0.000000)
 <Sz=0.00|(0.000000,-0.000000)(0.000000,0.000000)(-0.000000,-0.000000)
 <Sz=1.00|(-0.000000,0.000000)(0.000000,-0.000000)(0.000000,1.060290)
_______________________________

**************************************************

**************************************************
 State A: Root 0
 State B: Root 14


 Analysing Sz ans S^2 of the pair of states...
 Ket state:  Computed S^2 = 2.082852 will be treated as 2.000000 Sz = 1.000000
WARNING! The deviation of S^2 from the correct value is large, indicating a significant spin contamination. The results may be unreliable
 Bra state:  Computed S^2 = 2.443338 will be treated as 2.000000 Sz = 1.000000
 Clebsh-Gordan coefficient: <1.000,1.000;1.000,0.000|1.000,1.000> = 0.707

_______________________________
 One-electron SO (cm-1)
 Reduced matrix elements:
 <S|| Hso(L-) ||S'> = (0.325505,0.000000)
 <S|| Hso(L0) ||S'> = (0.000000,-0.000000)
 <S|| Hso(L+) ||S'> = (0.325505,-0.000000)

 SOCC = 0.460333


 Actual matrix elements:
       |Sz=-1.00>           |Sz=0.00>           |Sz=1.00>
 <Sz=-1.00|(-0.000000,0.000000)(0.230167,-0.000000)(0.000000,-0.000000)
 <Sz=0.00|(-0.230167,-0.000000)(-0.000000,0.000000)(0.230167,-0.000000)
 <Sz=1.00|(0.000000,0.000000)(-0.230167,-0.000000)(-0.000000,-0.000000)
_______________________________
 Mean-field SO (cm-1)
 Reduced matrix elements:
 <S|| Hso(L-) ||S'> = (-0.042571,0.000000)
 <S|| Hso(L0) ||S'> = (0.000000,-0.000000)
 <S|| Hso(L+) ||S'> = (-0.044767,-0.000000)

 Singlet part of <S|| Hso(L0) ||S'> = (0.000000,0.000000) (excluded from all matrix elements)
 L-/L+ Averaged reduced matrix elements:
 <S|| Hso(L-) ||S'> = (-0.043669,0.000000)
 <S|| Hso(L+) ||S'> = (-0.043669,-0.000000)

 SOCC = 0.061758


 Actual matrix elements:
       |Sz=-1.00>           |Sz=0.00>           |Sz=1.00>
 <Sz=-1.00|(0.000000,0.000000)(-0.030879,-0.000000)(-0.000000,-0.000000)
 <Sz=0.00|(0.030879,-0.000000)(0.000000,0.000000)(-0.030879,-0.000000)
 <Sz=1.00|(-0.000000,0.000000)(0.030879,-0.000000)(0.000000,-0.000000)
_______________________________

**************************************************

**************************************************
 State A: Root 0
 State B: Root 15


 Analysing Sz ans S^2 of the pair of states...
 Ket state:  Computed S^2 = 2.082852 will be treated as 2.000000 Sz = 1.000000
WARNING! The deviation of S^2 from the correct value is large, indicating a significant spin contamination. The results may be unreliable
 Bra state:  Computed S^2 = 2.900189 will be treated as 2.000000 Sz = 1.000000
 Clebsh-Gordan coefficient: <1.000,1.000;1.000,0.000|1.000,1.000> = 0.707

_______________________________
 One-electron SO (cm-1)
 Reduced matrix elements:
 <S|| Hso(L-) ||S'> = (1.083417,-0.000000)
 <S|| Hso(L0) ||S'> = (0.000000,0.000000)
 <S|| Hso(L+) ||S'> = (1.083417,0.000000)

 SOCC = 1.532184


 Actual matrix elements:
       |Sz=-1.00>           |Sz=0.00>           |Sz=1.00>
 <Sz=-1.00|(-0.000000,-0.000000)(0.766092,0.000000)(0.000000,0.000000)
 <Sz=0.00|(-0.766092,0.000000)(-0.000000,0.000000)(0.766092,0.000000)
 <Sz=1.00|(0.000000,0.000000)(-0.766092,0.000000)(-0.000000,0.000000)
_______________________________
 Mean-field SO (cm-1)
 Reduced matrix elements:
 <S|| Hso(L-) ||S'> = (0.014982,0.000000)
 <S|| Hso(L0) ||S'> = (0.000000,0.000000)
 <S|| Hso(L+) ||S'> = (0.012393,-0.000000)

 Singlet part of <S|| Hso(L0) ||S'> = (-0.000000,-0.000000) (excluded from all matrix elements)
 L-/L+ Averaged reduced matrix elements:
 <S|| Hso(L-) ||S'> = (0.013687,0.000000)
 <S|| Hso(L+) ||S'> = (0.013687,-0.000000)

 SOCC = 0.019357


 Actual matrix elements:
       |Sz=-1.00>           |Sz=0.00>           |Sz=1.00>
 <Sz=-1.00|(-0.000000,-0.000000)(0.009678,-0.000000)(0.000000,0.000000)
 <Sz=0.00|(-0.009678,-0.000000)(-0.000000,0.000000)(0.009678,-0.000000)
 <Sz=1.00|(0.000000,0.000000)(-0.009678,-0.000000)(-0.000000,0.000000)
_______________________________

**************************************************

**************************************************
 State A: Root 0
 State B: Root 16


 Analysing Sz ans S^2 of the pair of states...
 Ket state:  Computed S^2 = 2.082852 will be treated as 2.000000 Sz = 1.000000
 Bra state:  Computed S^2 = 2.247198 will be treated as 2.000000 Sz = 1.000000
 Clebsh-Gordan coefficient: <1.000,1.000;1.000,0.000|1.000,1.000> = 0.707

_______________________________
 One-electron SO (cm-1)
 Reduced matrix elements:
 <S|| Hso(L-) ||S'> = (0.000000,-0.000000)
 <S|| Hso(L0) ||S'> = (0.000000,-0.000000)
 <S|| Hso(L+) ||S'> = (0.000000,0.000000)

 SOCC = 0.000000


 Actual matrix elements:
       |Sz=-1.00>           |Sz=0.00>           |Sz=1.00>
 <Sz=-1.00|(-0.000000,0.000000)(0.000000,0.000000)(0.000000,-0.000000)
 <Sz=0.00|(-0.000000,0.000000)(-0.000000,-0.000000)(0.000000,0.000000)
 <Sz=1.00|(0.000000,-0.000000)(-0.000000,0.000000)(-0.000000,-0.000000)
_______________________________
 Mean-field SO (cm-1)
 Reduced matrix elements:
 <S|| Hso(L-) ||S'> = (0.000000,-0.000000)
 <S|| Hso(L0) ||S'> = (0.000000,-0.000000)
 <S|| Hso(L+) ||S'> = (0.000000,0.000000)

 Singlet part of <S|| Hso(L0) ||S'> = (0.000000,0.000000) (excluded from all matrix elements)
 L-/L+ Averaged reduced matrix elements:
 <S|| Hso(L-) ||S'> = (0.000000,-0.000000)
 <S|| Hso(L+) ||S'> = (0.000000,0.000000)

 SOCC = 0.000000


 Actual matrix elements:
       |Sz=-1.00>           |Sz=0.00>           |Sz=1.00>
 <Sz=-1.00|(-0.000000,0.000000)(0.000000,0.000000)(0.000000,0.000000)
 <Sz=0.00|(-0.000000,0.000000)(-0.000000,-0.000000)(0.000000,0.000000)
 <Sz=1.00|(0.000000,-0.000000)(-0.000000,0.000000)(-0.000000,-0.000000)
_______________________________

**************************************************

**************************************************
 State A: Root 0
 State B: Root 17


 Analysing Sz ans S^2 of the pair of states...
 Ket state:  Computed S^2 = 2.082852 will be treated as 2.000000 Sz = 1.000000
 Bra state:  Computed S^2 = 2.203149 will be treated as 2.000000 Sz = 1.000000
 Clebsh-Gordan coefficient: <1.000,1.000;1.000,0.000|1.000,1.000> = 0.707

_______________________________
 One-electron SO (cm-1)
 Reduced matrix elements:
 <S|| Hso(L-) ||S'> = (0.000000,4.574031)
 <S|| Hso(L0) ||S'> = (0.000000,0.000000)
 <S|| Hso(L+) ||S'> = (0.000000,-4.574031)

 SOCC = 6.468656


 Actual matrix elements:
       |Sz=-1.00>           |Sz=0.00>           |Sz=1.00>
 <Sz=-1.00|(-0.000000,-0.000000)(0.000000,-3.234328)(0.000000,-0.000000)
 <Sz=0.00|(-0.000000,-3.234328)(-0.000000,0.000000)(0.000000,-3.234328)
 <Sz=1.00|(0.000000,0.000000)(-0.000000,-3.234328)(-0.000000,0.000000)
_______________________________
 Mean-field SO (cm-1)
 Reduced matrix elements:
 <S|| Hso(L-) ||S'> = (0.000000,2.177252)
 <S|| Hso(L0) ||S'> = (0.000000,0.000000)
 <S|| Hso(L+) ||S'> = (0.000000,-2.173650)

 Singlet part of <S|| Hso(L0) ||S'> = (0.000000,0.000000) (excluded from all matrix elements)
 L-/L+ Averaged reduced matrix elements:
 <S|| Hso(L-) ||S'> = (0.000000,2.175451)
 <S|| Hso(L+) ||S'> = (0.000000,-2.175451)

 SOCC = 3.076552


 Actual matrix elements:
       |Sz=-1.00>           |Sz=0.00>           |Sz=1.00>
 <Sz=-1.00|(-0.000000,-0.000000)(0.000000,-1.538276)(0.000000,-0.000000)
 <Sz=0.00|(-0.000000,-1.538276)(-0.000000,0.000000)(0.000000,-1.538276)
 <Sz=1.00|(0.000000,0.000000)(-0.000000,-1.538276)(-0.000000,0.000000)
_______________________________

**************************************************

**************************************************
 State A: Root 0
 State B: Root 18


 Analysing Sz ans S^2 of the pair of states...
 Ket state:  Computed S^2 = 2.082852 will be treated as 2.000000 Sz = 1.000000
WARNING! The deviation of S^2 from the correct value is large, indicating a significant spin contamination. The results may be unreliable
 Bra state:  Computed S^2 = 3.468918 will be treated as 2.000000 Sz = 1.000000
 Clebsh-Gordan coefficient: <1.000,1.000;1.000,0.000|1.000,1.000> = 0.707

_______________________________
 One-electron SO (cm-1)
 Reduced matrix elements:
 <S|| Hso(L-) ||S'> = (-0.000000,0.000000)
 <S|| Hso(L0) ||S'> = (0.000000,-0.000000)
 <S|| Hso(L+) ||S'> = (-0.000000,-0.000000)

 SOCC = 0.000000


 Actual matrix elements:
       |Sz=-1.00>           |Sz=0.00>           |Sz=1.00>
 <Sz=-1.00|(0.000000,0.000000)(-0.000000,-0.000000)(-0.000000,-0.000000)
 <Sz=0.00|(0.000000,-0.000000)(0.000000,0.000000)(-0.000000,-0.000000)
 <Sz=1.00|(-0.000000,-0.000000)(0.000000,-0.000000)(0.000000,-0.000000)
_______________________________
 Mean-field SO (cm-1)
 Reduced matrix elements:
 <S|| Hso(L-) ||S'> = (0.000000,0.000000)
 <S|| Hso(L0) ||S'> = (0.000000,-0.000000)
 <S|| Hso(L+) ||S'> = (0.000000,-0.000000)

 Singlet part of <S|| Hso(L0) ||S'> = (0.000000,0.000000) (excluded from all matrix elements)
 L-/L+ Averaged reduced matrix elements:
 <S|| Hso(L-) ||S'> = (0.000000,0.000000)
 <S|| Hso(L+) ||S'> = (0.000000,-0.000000)

 SOCC = 0.000000


 Actual matrix elements:
       |Sz=-1.00>           |Sz=0.00>           |Sz=1.00>
 <Sz=-1.00|(-0.000000,0.000000)(0.000000,-0.000000)(0.000000,-0.000000)
 <Sz=0.00|(-0.000000,-0.000000)(-0.000000,0.000000)(0.000000,-0.000000)
 <Sz=1.00|(0.000000,-0.000000)(-0.000000,-0.000000)(-0.000000,-0.000000)
_______________________________

**************************************************

**************************************************
 State A: Root 0
 State B: Root 19


 Analysing Sz ans S^2 of the pair of states...
 Ket state:  Computed S^2 = 2.082852 will be treated as 2.000000 Sz = 1.000000
 Bra state:  Computed S^2 = 2.201506 will be treated as 2.000000 Sz = 1.000000
 Clebsh-Gordan coefficient: <1.000,1.000;1.000,0.000|1.000,1.000> = 0.707

_______________________________
 One-electron SO (cm-1)
 Reduced matrix elements:
 <S|| Hso(L-) ||S'> = (-0.000000,-0.000000)
 <S|| Hso(L0) ||S'> = (0.000000,-0.000000)
 <S|| Hso(L+) ||S'> = (-0.000000,0.000000)

 SOCC = 0.000000


 Actual matrix elements:
       |Sz=-1.00>           |Sz=0.00>           |Sz=1.00>
 <Sz=-1.00|(0.000000,0.000000)(-0.000000,0.000000)(-0.000000,-0.000000)
 <Sz=0.00|(0.000000,0.000000)(0.000000,-0.000000)(-0.000000,0.000000)
 <Sz=1.00|(-0.000000,-0.000000)(0.000000,0.000000)(0.000000,-0.000000)
_______________________________
 Mean-field SO (cm-1)
 Reduced matrix elements:
 <S|| Hso(L-) ||S'> = (-0.000000,-0.000000)
 <S|| Hso(L0) ||S'> = (0.000000,-0.000000)
 <S|| Hso(L+) ||S'> = (-0.000000,0.000000)

 Singlet part of <S|| Hso(L0) ||S'> = (0.000000,0.000000) (excluded from all matrix elements)
 L-/L+ Averaged reduced matrix elements:
 <S|| Hso(L-) ||S'> = (-0.000000,-0.000000)
 <S|| Hso(L+) ||S'> = (-0.000000,0.000000)

 SOCC = 0.000000


 Actual matrix elements:
       |Sz=-1.00>           |Sz=0.00>           |Sz=1.00>
 <Sz=-1.00|(0.000000,0.000000)(-0.000000,0.000000)(-0.000000,-0.000000)
 <Sz=0.00|(0.000000,0.000000)(0.000000,-0.000000)(-0.000000,0.000000)
 <Sz=1.00|(-0.000000,-0.000000)(0.000000,0.000000)(0.000000,-0.000000)
_______________________________

**************************************************

**************************************************
 State A: Root 0
 State B: Root 20


 Analysing Sz ans S^2 of the pair of states...
 Ket state:  Computed S^2 = 2.082852 will be treated as 2.000000 Sz = 1.000000
WARNING! The deviation of S^2 from the correct value is large, indicating a significant spin contamination. The results may be unreliable
 Bra state:  Computed S^2 = 3.081636 will be treated as 2.000000 Sz = 1.000000
 Clebsh-Gordan coefficient: <1.000,1.000;1.000,0.000|1.000,1.000> = 0.707

_______________________________
 One-electron SO (cm-1)
 Reduced matrix elements:
 <S|| Hso(L-) ||S'> = (0.000000,0.000000)
 <S|| Hso(L0) ||S'> = (0.000000,34.827931)
 <S|| Hso(L+) ||S'> = (0.000000,-0.000000)

 SOCC = 34.827931


 Actual matrix elements:
       |Sz=-1.00>           |Sz=0.00>           |Sz=1.00>
 <Sz=-1.00|(-0.000000,-24.627066)(0.000000,-0.000000)(0.000000,0.000000)
 <Sz=0.00|(-0.000000,-0.000000)(-0.000000,0.000000)(0.000000,-0.000000)
 <Sz=1.00|(0.000000,0.000000)(-0.000000,-0.000000)(-0.000000,24.627066)
_______________________________
 Mean-field SO (cm-1)
 Reduced matrix elements:
 <S|| Hso(L-) ||S'> = (0.000000,-0.000000)
 <S|| Hso(L0) ||S'> = (0.000000,21.980478)
 <S|| Hso(L+) ||S'> = (0.000000,0.000000)

 Singlet part of <S|| Hso(L0) ||S'> = (-0.000000,-0.035279) (excluded from all matrix elements)
 L-/L+ Averaged reduced matrix elements:
 <S|| Hso(L-) ||S'> = (0.000000,-0.000000)
 <S|| Hso(L+) ||S'> = (0.000000,0.000000)

 SOCC = 21.980478


 Actual matrix elements:
       |Sz=-1.00>           |Sz=0.00>           |Sz=1.00>
 <Sz=-1.00|(-0.000000,-15.542545)(0.000000,0.000000)(0.000000,0.000000)
 <Sz=0.00|(-0.000000,0.000000)(-0.000000,0.000000)(0.000000,0.000000)
 <Sz=1.00|(0.000000,0.000000)(-0.000000,0.000000)(-0.000000,15.542545)
_______________________________

**************************************************

**************************************************
 State A: Root 0
 State B: Root 21


 Analysing Sz ans S^2 of the pair of states...
 Ket state:  Computed S^2 = 2.082852 will be treated as 2.000000 Sz = 1.000000
 Bra state:  Computed S^2 = 2.199086 will be treated as 2.000000 Sz = 1.000000
 Clebsh-Gordan coefficient: <1.000,1.000;1.000,0.000|1.000,1.000> = 0.707

_______________________________
 One-electron SO (cm-1)
 Reduced matrix elements:
 <S|| Hso(L-) ||S'> = (-0.000000,-0.000000)
 <S|| Hso(L0) ||S'> = (0.000000,7.028895)
 <S|| Hso(L+) ||S'> = (-0.000000,0.000000)

 SOCC = 7.028895


 Actual matrix elements:
       |Sz=-1.00>           |Sz=0.00>           |Sz=1.00>
 <Sz=-1.00|(0.000000,-4.970179)(-0.000000,0.000000)(-0.000000,0.000000)
 <Sz=0.00|(0.000000,0.000000)(0.000000,0.000000)(-0.000000,0.000000)
 <Sz=1.00|(-0.000000,0.000000)(0.000000,0.000000)(0.000000,4.970179)
_______________________________
 Mean-field SO (cm-1)
 Reduced matrix elements:
 <S|| Hso(L-) ||S'> = (0.000000,-0.000000)
 <S|| Hso(L0) ||S'> = (0.000000,4.240674)
 <S|| Hso(L+) ||S'> = (0.000000,0.000000)

 Singlet part of <S|| Hso(L0) ||S'> = (-0.000000,-0.006888) (excluded from all matrix elements)
 L-/L+ Averaged reduced matrix elements:
 <S|| Hso(L-) ||S'> = (0.000000,-0.000000)
 <S|| Hso(L+) ||S'> = (0.000000,0.000000)

 SOCC = 4.240674


 Actual matrix elements:
       |Sz=-1.00>           |Sz=0.00>           |Sz=1.00>
 <Sz=-1.00|(-0.000000,-2.998609)(0.000000,0.000000)(0.000000,0.000000)
 <Sz=0.00|(-0.000000,0.000000)(-0.000000,0.000000)(0.000000,0.000000)
 <Sz=1.00|(0.000000,0.000000)(-0.000000,0.000000)(-0.000000,2.998609)
_______________________________

**************************************************

**************************************************
 State A: Root 0
 State B: Root 22


 Analysing Sz ans S^2 of the pair of states...
 Ket state:  Computed S^2 = 2.082852 will be treated as 2.000000 Sz = 1.000000
WARNING! The deviation of S^2 from the correct value is large, indicating a significant spin contamination. The results may be unreliable
 Bra state:  Computed S^2 = 2.449187 will be treated as 2.000000 Sz = 1.000000
 Clebsh-Gordan coefficient: <1.000,1.000;1.000,0.000|1.000,1.000> = 0.707

_______________________________
 One-electron SO (cm-1)
 Reduced matrix elements:
 <S|| Hso(L-) ||S'> = (-0.413234,-0.000000)
 <S|| Hso(L0) ||S'> = (0.000000,0.000000)
 <S|| Hso(L+) ||S'> = (-0.413234,0.000000)

 SOCC = 0.584401


 Actual matrix elements:
       |Sz=-1.00>           |Sz=0.00>           |Sz=1.00>
 <Sz=-1.00|(0.000000,-0.000000)(-0.292201,0.000000)(-0.000000,0.000000)
 <Sz=0.00|(0.292201,0.000000)(0.000000,-0.000000)(-0.292201,0.000000)
 <Sz=1.00|(-0.000000,-0.000000)(0.292201,0.000000)(0.000000,0.000000)
_______________________________
 Mean-field SO (cm-1)
 Reduced matrix elements:
 <S|| Hso(L-) ||S'> = (-0.004407,0.000000)
 <S|| Hso(L0) ||S'> = (0.000000,0.000000)
 <S|| Hso(L+) ||S'> = (-0.007361,-0.000000)

 Singlet part of <S|| Hso(L0) ||S'> = (-0.000000,-0.000000) (excluded from all matrix elements)
 L-/L+ Averaged reduced matrix elements:
 <S|| Hso(L-) ||S'> = (-0.005884,0.000000)
 <S|| Hso(L+) ||S'> = (-0.005884,-0.000000)

 SOCC = 0.008321


 Actual matrix elements:
       |Sz=-1.00>           |Sz=0.00>           |Sz=1.00>
 <Sz=-1.00|(0.000000,-0.000000)(-0.004161,-0.000000)(-0.000000,0.000000)
 <Sz=0.00|(0.004161,-0.000000)(0.000000,0.000000)(-0.004161,-0.000000)
 <Sz=1.00|(-0.000000,0.000000)(0.004161,-0.000000)(0.000000,0.000000)
_______________________________

**************************************************

**************************************************
 State A: Root 0
 State B: Root 23


 Analysing Sz ans S^2 of the pair of states...
 Ket state:  Computed S^2 = 2.082852 will be treated as 2.000000 Sz = 1.000000
 Bra state:  Computed S^2 = 2.192872 will be treated as 2.000000 Sz = 1.000000
 Clebsh-Gordan coefficient: <1.000,1.000;1.000,0.000|1.000,1.000> = 0.707

_______________________________
 One-electron SO (cm-1)
 Reduced matrix elements:
 <S|| Hso(L-) ||S'> = (-0.000000,-0.000000)
 <S|| Hso(L0) ||S'> = (0.000000,-1.473482)
 <S|| Hso(L+) ||S'> = (-0.000000,0.000000)

 SOCC = 1.473482


 Actual matrix elements:
       |Sz=-1.00>           |Sz=0.00>           |Sz=1.00>
 <Sz=-1.00|(0.000000,1.041909)(-0.000000,0.000000)(-0.000000,-0.000000)
 <Sz=0.00|(0.000000,0.000000)(0.000000,-0.000000)(-0.000000,0.000000)
[...]
 22 A1   17 B1    3 B2    4 B2    2 A2   18 B1    3 A2    5 B2                 
 -- Virtual --                   
 -0.024   0.004   0.045   0.069   0.078   0.079   0.093   0.112
  6 B2    4 A2    5 A2   23 A1    7 B2   19 B1   24 A1   20 B1                 
  0.116   0.126   0.143   0.143   0.159   0.165   0.183   0.183
 25 A1   26 A1   21 B1   27 A1   22 B1   23 B1    8 B2   28 A1                 
  0.202   0.207   0.217   0.221   0.231   0.231   0.239   0.243
  6 A2   29 A1    9 B2   30 A1   24 B1   31 A1    7 A2   25 B1                 
  0.248   0.250   0.263   0.268   0.278   0.290   0.297   0.298
 32 A1   26 B1   10 B2   33 A1   11 B2    8 A2   27 B1   34 A1                 
  0.311   0.329   0.332   0.336   0.341   0.348   0.351   0.352
 28 B1   29 B1   35 A1    9 A2   36 A1   12 B2   13 B2   37 A1                 
  0.368   0.378   0.390   0.392   0.397   0.413   0.415   0.417
 30 B1   38 A1   31 B1   10 A2   39 A1   40 A1   11 A2   32 B1                 
  0.419   0.425   0.431   0.444   0.449   0.450   0.464   0.473
 14 B2   33 B1   34 B1   41 A1   42 A1   35 B1   15 B2   36 B1                 
  0.474   0.493   0.494   0.504   0.508   0.512   0.530   0.541
 43 A1   12 A2   44 A1   37 B1   45 A1   46 A1   38 B1   47 A1                 
  0.542   0.544   0.551   0.557   0.580   0.596   0.613   0.617
 39 B1   16 B2   40 B1   48 A1   41 B1   42 B1   49 A1   43 B1                 
  0.623   0.647   0.667   0.677   0.687   0.692   0.698   0.713
 17 B2   13 A2   50 A1   44 B1   51 A1   52 A1   45 B1   53 A1                 
  0.716   0.722   0.723   0.730   0.735   0.738   0.769   0.777
 18 B2   14 A2   46 B1   54 A1   47 B1   55 A1   15 A2   19 B2                 
  0.778   0.787   0.794   0.799   0.814   0.818   0.836   0.847
 48 B1   49 B1   56 A1   20 B2   50 B1   57 A1   51 B1   58 A1                 
  0.859   0.861   0.877   0.885   0.902   0.907   0.907   0.928
 21 B2   16 A2   59 A1   52 B1   22 B2   60 A1   53 B1   54 B1                 
  0.933   0.943   0.961   0.965   0.982   0.997   1.024   1.027
 61 A1   17 A2   62 A1   55 B1   56 B1   63 A1   18 A2   57 B1                 
  1.034   1.060   1.066   1.082   1.093   1.117   1.121   1.121
 64 A1   23 B2   65 A1   66 A1   19 A2   24 B2   58 B1   67 A1                 
  1.134   1.172   1.177   1.210   1.214   1.219   1.241   1.241
 59 B1   25 B2   20 A2   21 A2   68 A1   60 B1   69 A1   26 B2                 
  1.249   1.264   1.279   1.283   1.291   1.301   1.302   1.322
 61 B1   70 A1   71 A1   27 B2   62 B1   72 A1   63 B1   73 A1                 
  1.326   1.353   1.390   1.392   1.403   1.406   1.406   1.419
 64 B1   22 A2   74 A1   65 B1   23 A2   28 B2   66 B1   75 A1                 
  1.429   1.457   1.458   1.473   1.489   1.491   1.522   1.533
 67 B1   76 A1   29 B2   24 A2   77 A1   68 B1   69 B1   25 A2                 
  1.534   1.560   1.564   1.582   1.600   1.617   1.618   1.624
 78 A1   30 B2   31 B2   26 A2   70 B1   79 A1   71 B1   80 A1                 
  1.634   1.656   1.661   1.678   1.693   1.697   1.726   1.732
 81 A1   32 B2   72 B1   27 A2   33 B2   73 B1   82 A1   28 A2                 
  1.745   1.748   1.764   1.768   1.783   1.785   1.793   1.805
 83 A1   34 B2   74 B1   84 A1   85 A1   35 B2   29 A2   75 B1                 
  1.818   1.835   1.845   1.882   1.906   1.918   1.927   1.947
 76 B1   30 A2   86 A1   77 B1   36 B2   31 A2   87 A1   37 B2                 
  1.955   1.992   1.996   2.008   2.064   2.073   2.082   2.113
 32 A2   33 A2   38 B2   88 A1   78 B1   39 B2   34 A2   89 A1                 
  2.125   2.128   2.135   2.143   2.176   2.177   2.186   2.189
 35 A2   79 B1   90 A1   80 B1   91 A1   81 B1   92 A1   40 B2                 
  2.216   2.222   2.255   2.264   2.273   2.289   2.308   2.309
 82 B1   93 A1   94 A1   83 B1   95 A1   84 B1   85 B1   96 A1                 
  2.355   2.391   2.393   2.416   2.422   2.424   2.439   2.500
 86 B1   97 A1   41 B2   87 B1   42 B2   98 A1   36 A2   88 B1                 
  2.505   2.526   2.531   2.535   2.542   2.557   2.591   2.632
 99 A1  100 A1   37 A2   89 B1  101 A1   90 B1   43 B2  102 A1                 
  2.645   2.662   2.680   2.689   2.692   2.701   2.705   2.711
 91 B1   92 B1  103 A1   44 B2  104 A1   93 B1  105 A1   94 B1                 
  2.715   2.738   2.747   2.748   2.752   2.779   2.790   2.805
 38 A2  106 A1   39 A2   45 B2   95 B1   46 B2   96 B1   40 A2                 
  2.805   2.810   2.824   2.826   2.829   2.832   2.833   2.869
 47 B2   97 B1  107 A1   98 B1   41 A2   48 B2  108 A1  109 A1                 
  2.873   2.904   2.910   2.916   2.919   2.929   2.954   2.957
 49 B2   99 B1   42 A2  100 B1  110 A1   50 B2  111 A1  101 B1                 
  2.972   2.975   2.983   3.002   3.011   3.023   3.029   3.039
112 A1   43 A2  102 B1   44 A2  113 A1  103 B1   51 B2   52 B2                 
  3.049   3.052   3.080   3.098   3.104   3.111   3.113   3.136
114 A1  104 B1  115 A1  116 A1   45 A2   53 B2  105 B1   46 A2                 
  3.143   3.144   3.160   3.163   3.182   3.198   3.221   3.226
 54 B2   47 A2   55 B2  117 A1   56 B2  118 A1  119 A1  106 B1                 
  3.242   3.251   3.254   3.265   3.268   3.271   3.278   3.286
107 B1   48 A2  120 A1  108 B1   57 B2  121 A1  109 B1   49 A2                 
  3.294   3.323   3.323   3.332   3.352   3.354   3.375   3.378
 50 A2   58 B2  110 B1  122 A1  111 B1   51 A2  123 A1   59 B2                 
  3.390   3.403   3.405   3.426   3.441   3.449   3.461   3.461
112 B1  124 A1   60 B2  125 A1   52 A2  113 B1  114 B1   61 B2                 
  3.466   3.497   3.503   3.506   3.507   3.522   3.532   3.552
126 A1   62 B2  115 B1   53 A2  127 A1   63 B2  128 A1  116 B1                 
  3.572   3.572   3.580   3.608   3.610   3.623   3.635   3.637
129 A1  117 B1   54 A2   64 B2   55 A2  130 A1   56 A2  118 B1                 
  3.649   3.653   3.657   3.660   3.665   3.680   3.682   3.708
131 A1  119 B1  120 B1   57 A2   65 B2  132 A1   58 A2  133 A1                 
  3.718   3.762   3.771   3.783   3.808   3.858   3.881   3.920
121 B1  134 A1  122 B1   66 B2   59 A2  123 B1  135 A1   60 A2                 
  3.925   3.925   3.947   3.973   3.999   4.006   4.013   4.034
124 B1   67 B2  136 A1  137 A1  125 B1   68 B2  126 B1  138 A1                 
  4.043   4.065   4.113   4.140   4.148   4.157   4.165   4.174
127 B1  139 A1  140 A1  141 A1   69 B2  128 B1   70 B2  129 B1                 
  4.196   4.223   4.233   4.252   4.265   4.296   4.301   4.307
142 A1  130 B1   61 A2   62 A2  143 A1   71 B2  144 A1  131 B1                 
  4.329   4.336   4.353   4.375   4.380   4.413   4.422   4.424
 63 A2   72 B2  145 A1   64 A2  132 B1   65 A2   73 B2  133 B1                 
  4.447   4.490   4.532   4.540   4.557   4.562   4.570   4.675
134 B1  146 A1  135 B1  147 A1   66 A2  136 B1  148 A1   74 B2                 
  4.677   4.740   4.756   4.758   4.806   4.825   4.862   4.873
149 A1   75 B2  150 A1  137 B1  138 B1  151 A1  152 A1   67 A2                 
  4.882   4.892   4.908   4.932   5.008   5.023   5.061   5.090
139 B1   68 A2  153 A1  140 B1  154 A1  141 B1  155 A1  142 B1                 
  5.127   5.155   5.181   5.248   5.350   5.367   5.372   5.391
143 B1  156 A1  144 B1  157 A1  145 B1   76 B2  158 A1  146 B1                 
  5.393   5.433   5.506   5.540   5.652   5.669   5.693   5.780
159 A1  147 B1  148 B1  160 A1  161 A1  149 B1  162 A1  150 B1                 
  5.783   5.870   5.954   6.102   6.329   6.573   6.641   6.798
 69 A2  151 B1  163 A1  152 B1   77 B2   70 A2  164 A1  165 A1                 
  6.989   7.014   7.293   7.391  22.288  22.865  22.880  22.983
153 B1   78 B2  166 A1  154 B1  167 A1  155 B1  168 A1  156 B1                 
 23.011  23.056  23.077  23.307  23.362  23.532  23.788  23.929
169 A1  170 A1  157 B1  171 A1  158 B1  159 B1  172 A1  173 A1                 
 24.020  44.583
160 B1  174 A1                                                                 
 
 Beta MOs, Unrestricted
 -- Occupied --                  
-19.624 -10.642 -10.612 -10.612 -10.609 -10.609 -10.608 -10.608
  1 A1    2 A1    3 A1    1 B1    2 B1    4 A1    3 B1    5 A1                 
-10.605 -10.605 -10.602 -10.602 -10.600 -10.600  -1.135  -1.017
  4 B1    6 A1    5 B1    7 A1    6 B1    8 A1    9 A1   10 A1                 
 -0.980  -0.923  -0.894  -0.879  -0.825  -0.778  -0.745  -0.695
  7 B1   11 A1   12 A1    8 B1    9 B1   13 A1   14 A1   10 B1                 
 -0.679  -0.656  -0.609  -0.596  -0.569  -0.540  -0.535  -0.525
 11 B1   15 A1   16 A1   12 B1   17 A1   18 A1   13 B1   14 B1                 
 -0.516  -0.509  -0.485  -0.474  -0.457  -0.454  -0.423  -0.418
 19 A1   15 B1   20 A1    1 B2   16 B1   21 A1   22 A1   17 B1                 
 -0.416  -0.401  -0.331  -0.317  -0.307  -0.300
  1 A2    2 B2    3 B2    2 A2   18 B1    4 B2                                 
 -- Virtual --                   
 -0.138  -0.042  -0.006   0.045   0.070   0.073   0.079   0.094
  3 A2    5 B2    6 B2    4 A2   23 A1    5 A2   19 B1   24 A1                 
  0.112   0.113   0.116   0.128   0.143   0.144   0.160   0.166
 20 B1    7 B2   25 A1   26 A1   21 B1   27 A1   22 B1   23 B1                 
  0.184   0.208   0.214   0.221   0.225   0.231   0.233   0.234
 28 A1   29 A1    8 B2    9 B2   30 A1   24 B1    6 A2   31 A1                 
  0.243   0.244   0.251   0.253   0.266   0.269   0.286   0.290
 25 B1    7 A2   32 A1   26 B1   10 B2   33 A1   11 B2    8 A2                 
  0.299   0.302   0.313   0.331   0.337   0.344   0.346   0.356
 34 A1   27 B1   28 B1   29 B1   35 A1    9 A2   36 A1   12 B2                 
  0.356   0.360   0.374   0.380   0.398   0.401   0.403   0.414
 37 A1   13 B2   30 B1   38 A1   31 B1   39 A1   10 A2   40 A1                 
  0.420   0.421   0.423   0.428   0.435   0.447   0.453   0.453
 14 B2   32 B1   11 A2   33 B1   34 B1   41 A1   42 A1   35 B1                 
  0.476   0.476   0.477   0.495   0.504   0.506   0.509   0.516
 15 B2   36 B1   43 A1   44 A1   12 A2   37 B1   45 A1   46 A1                 
  0.533   0.544   0.545   0.554   0.556   0.560   0.582   0.597
 38 B1   47 A1   39 B1   40 B1   16 B2   48 A1   41 B1   42 B1                 
  0.616   0.619   0.635   0.652   0.670   0.680   0.688   0.696
 49 A1   43 B1   17 B2   13 A2   50 A1   44 B1   51 A1   52 A1                 
  0.701   0.716   0.725   0.728   0.732   0.733   0.739   0.739
 45 B1   53 A1   46 B1   18 B2   14 A2   54 A1   47 B1   55 A1                 
  0.776   0.780   0.785   0.789   0.795   0.807   0.815   0.821
 15 A2   48 B1   19 B2   49 B1   56 A1   20 B2   50 B1   57 A1                 
  0.839   0.850   0.870   0.870   0.879   0.887   0.910   0.910
 51 B1   58 A1   21 B2   16 A2   59 A1   52 B1   53 B1   60 A1                 
  0.914   0.930   0.938   0.949   0.963   0.966   0.985   1.000
 22 B2   54 B1   61 A1   17 A2   62 A1   55 B1   56 B1   63 A1                 
  1.030   1.032   1.039   1.064   1.071   1.085   1.100   1.122
 57 B1   18 A2   64 A1   23 B2   65 A1   66 A1   19 A2   58 B1                 
  1.124   1.126   1.140   1.181   1.184   1.216   1.219   1.221
 67 A1   24 B2   59 B1   25 B2   20 A2   21 A2   68 A1   60 B1                 
  1.243   1.249   1.253   1.266   1.281   1.292   1.294   1.303
 69 A1   26 B2   61 B1   70 A1   71 A1   62 B1   27 B2   72 A1                 
  1.306   1.325   1.328   1.362   1.394   1.394   1.408   1.411
 63 B1   73 A1   64 B1   22 A2   74 A1   65 B1   66 B1   23 A2                 
  1.412   1.420   1.431   1.461   1.470   1.486   1.490   1.495
 28 B2   75 A1   67 B1   76 A1   29 B2   24 A2   77 A1   68 B1                 
  1.524   1.536   1.543   1.566   1.579   1.592   1.603   1.619
 69 B1   78 A1   25 A2   30 B2   31 B2   26 A2   70 B1   79 A1                 
  1.619   1.625   1.636   1.664   1.665   1.693   1.699   1.702
 71 B1   80 A1   81 A1   72 B1   32 B2   27 A2   73 B1   33 B2                 
  1.729   1.741   1.750   1.753   1.766   1.772   1.785   1.792
 82 A1   28 A2   83 A1   34 B2   74 B1   84 A1   85 A1   35 B2                 
  1.800   1.808   1.819   1.841   1.848   1.883   1.912   1.925
 29 A2   75 B1   76 B1   30 A2   86 A1   77 B1   36 B2   31 A2                 
  1.932   1.958   1.965   2.000   2.006   2.013   2.067   2.077
 87 A1   37 B2   32 A2   38 B2   33 A2   88 A1   78 B1   39 B2                 
  2.088   2.115   2.127   2.131   2.140   2.149   2.181   2.181
 34 A2   89 A1   35 A2   79 B1   90 A1   80 B1   91 A1   81 B1                 
  2.190   2.202   2.221   2.227   2.260   2.270   2.277   2.292
 92 A1   40 B2   82 B1   93 A1   94 A1   83 B1   95 A1   84 B1                 
  2.310   2.313   2.358   2.395   2.399   2.421   2.427   2.433
 85 B1   96 A1   86 B1   97 A1   41 B2   87 B1   98 A1   42 B2                 
  2.445   2.504   2.507   2.531   2.536   2.540   2.546   2.560
 36 A2   88 B1   99 A1  100 A1   37 A2   89 B1  101 A1   90 B1                 
  2.599   2.639   2.648   2.664   2.681   2.692   2.701   2.704
 43 B2  102 A1   91 B1   92 B1  103 A1  104 A1   44 B2   93 B1                 
  2.708   2.713   2.724   2.740   2.752   2.754   2.755   2.791
105 A1   94 B1   38 A2  106 A1   39 A2   45 B2   95 B1   46 B2                 
  2.794   2.811   2.813   2.813   2.827   2.829   2.833   2.836
 96 B1   40 A2   97 B1   47 B2  107 A1   98 B1   41 A2  108 A1                 
  2.841   2.875   2.881   2.907   2.917   2.919   2.922   2.934
 48 B2  109 A1   49 B2   99 B1   42 A2  100 B1  110 A1   50 B2                 
  2.959   2.960   2.978   2.981   2.990   3.007   3.017   3.027
111 A1  101 B1  112 A1   43 A2  102 B1   44 A2  113 A1  103 B1                 
  3.036   3.045   3.055   3.056   3.085   3.104   3.111   3.118
 51 B2   52 B2  114 A1  104 B1  115 A1  116 A1   45 A2  105 B1                 
  3.119   3.143   3.151   3.151   3.169   3.171   3.192   3.202
 53 B2   46 A2   54 B2   47 A2  117 A1   55 B2   56 B2  118 A1                 
  3.227   3.232   3.244   3.255   3.256   3.270   3.276   3.277
119 A1  106 B1  107 B1   48 A2  120 A1  108 B1   57 B2  121 A1                 
  3.284   3.287   3.303   3.325   3.331   3.338   3.357   3.362
109 B1   49 A2   50 A2  110 B1   58 B2  122 A1  111 B1   51 A2                 
  3.380   3.381   3.395   3.405   3.409   3.431   3.442   3.454
123 A1   59 B2  112 B1  124 A1   60 B2  125 A1   52 A2  113 B1                 
  3.465   3.471   3.471   3.506   3.506   3.511   3.512   3.529
114 B1   61 B2  126 A1   62 B2  115 B1  127 A1   53 A2   63 B2                 
  3.537   3.556   3.574   3.575   3.589   3.614   3.617   3.625
128 A1  116 B1  129 A1  117 B1   54 A2   64 B2   55 A2  130 A1                 
  3.639   3.646   3.651   3.656   3.661   3.667   3.675   3.682
118 B1   56 A2  131 A1  119 B1  120 B1   57 A2   65 B2  132 A1                 
  3.693   3.710   3.720   3.764   3.772   3.791   3.816   3.860
 58 A2  133 A1  121 B1  134 A1  122 B1   66 B2   59 A2  123 B1                 
  3.882   3.926   3.928   3.932   3.949   3.977   4.001   4.013
135 A1   60 A2  124 B1   67 B2  136 A1  137 A1  125 B1   68 B2                 
  4.014   4.037   4.046   4.067   4.115   4.143   4.157   4.159
126 B1  138 A1  127 B1  139 A1  140 A1  141 A1   69 B2  128 B1                 
  4.175   4.177   4.198   4.227   4.242   4.260   4.266   4.303
 70 B2  129 B1  142 A1  130 B1   61 A2   62 A2  143 A1   71 B2                 
  4.303   4.309   4.336   4.342   4.354   4.381   4.382   4.420
144 A1  131 B1   63 A2   72 B2  145 A1  132 B1   64 A2   65 A2                 
  4.426   4.430   4.449   4.493   4.535   4.542   4.565   4.565
133 B1   73 B2  134 B1  146 A1  135 B1  147 A1  136 B1   66 A2                 
  4.574   4.680   4.681   4.747   4.759   4.761   4.807   4.828
148 A1  149 A1   74 B2   75 B2  150 A1  137 B1  138 B1  151 A1                 
  4.866   4.881   4.884   4.900   4.909   4.935   5.010   5.025
152 A1   67 A2  139 B1   68 A2  153 A1  140 B1  154 A1  141 B1                 
  5.065   5.093   5.129   5.158   5.184   5.250   5.362   5.375
155 A1  142 B1  143 B1  156 A1  144 B1  157 A1  145 B1  158 A1                 
  5.387   5.395   5.397   5.435   5.509   5.545   5.654   5.673
 76 B2  159 A1  146 B1  147 B1  148 B1  160 A1  161 A1  149 B1                 
  5.695   5.784   5.795   5.873   5.962   6.104   6.347   6.603
162 A1  150 B1   69 A2  151 B1  163 A1  152 B1   77 B2   70 A2                 
  6.653   6.825   6.993   7.038   7.303   7.394  22.290  22.867
164 A1  165 A1  153 B1   78 B2  166 A1  154 B1  167 A1  155 B1                 
 22.882  22.984  23.016  23.055  23.077  23.307  23.362  23.536
168 A1  156 B1  169 A1  170 A1  157 B1  171 A1  158 B1  159 B1                 
 23.790  23.931  24.024  44.591
172 A1  173 A1  160 B1  174 A1                                                 
 --------------------------------------------------------------
 
          Ground-State Mulliken Net Atomic Charges

     Atom                 Charge (a.u.)    Spin (a.u.)
  --------------------------------------------------------
      1 C                     0.038336      -0.065330
      2 O                    -0.395343       0.319901
      3 C                     0.118318       0.391170
      4 C                     0.118318       0.391170
      5 C                     0.121209       0.208697
      6 C                    -0.210299      -0.202516
      7 C                    -0.060717       0.394142
      8 C                    -0.245570       0.082467
      9 C                    -0.105578       0.019580
     10 H                     0.154787       0.008396
     11 H                     0.129575      -0.005492
     12 H                     0.141781      -0.020871
     13 H                     0.134998      -0.002859
     14 C                     0.121209       0.208697
     15 C                    -0.210299      -0.202516
     16 C                    -0.245570       0.082467
     17 C                    -0.060717       0.394142
     18 C                    -0.105578       0.019580
     19 H                     0.129575      -0.005492
     20 H                     0.154787       0.008396
     21 H                     0.141781      -0.020871
     22 H                     0.134998      -0.002859
  --------------------------------------------------------
  Sum of atomic charges =     0.000000
  Sum of spin   charges =     2.000000

 -----------------------------------------------------------------
                    Cartesian Multipole Moments
 -----------------------------------------------------------------
    Charge (ESU x 10^10)
                -0.0000
    Dipole Moment (Debye)
         X       0.0000      Y      -0.0000      Z      -4.8973
       Tot       4.8973
    Quadrupole Moments (Debye-Ang)
        XX     -59.2888     XY       0.0000     YY     -84.8331
        XZ      -0.0000     YZ       0.0000     ZZ     -85.6441
    Octopole Moments (Debye-Ang^2)
       XXX       0.0000    XXY      -0.0000    XYY       0.0000
       YYY      -0.0000    XXZ       1.5189    XYZ      -0.0000
       YYZ       7.1061    XZZ       0.0000    YZZ      -0.0000
       ZZZ     -53.4364
    Hexadecapole Moments (Debye-Ang^3)
      XXXX   -2010.8278   XXXY      -0.0000   XXYY    -463.7744
      XYYY      -0.0000   YYYY     -97.1213   XXXZ       0.0000
      XXYZ       0.0000   XYYZ      -0.0000   YYYZ       0.0000
      XXZZ    -504.8418   XYZZ       0.0000   YYZZ    -198.0339
      XZZZ      -0.0000   YZZZ       0.0000   ZZZZ   -1096.6956
 -----------------------------------------------------------------
 Total job time:  26864.44s(wall), 26752.83s(cpu) 
 Tue Dec  5 03:40:18 2023

        *************************************************************
        *                                                           *
        *  Thank you very much for using Q-Chem.  Have a nice day.  *
        *                                                           *
        *************************************************************


