                  Welcome to Q-Chem
     A Quantum Leap Into The Future Of Chemistry


 Q-Chem 6.0 (devel), Q-Chem, Inc., Pleasanton, CA (2022)

 E. Epifanovsky,  A. T. B. Gilbert,  Xintian Feng,  Joonho Lee,  Yuezhi Mao,  
 N. Mardirossian,  P. Pokhilko,  A. White,  M. Wormit,  M. P. Coons,  
 A. L. Dempwolff,  Zhengting Gan,  D. Hait,  P. R. Horn,  L. D. Jacobson,  
 I. Kaliman,  J. Kussmann,  A. W. Lange,  Ka Un Lao,  D. S. Levine,  Jie Liu,  
 S. C. McKenzie,  A. F. Morrison,  K. Nanda,  F. Plasser,  D. R. Rehn,  
 M. L. Vidal,  Zhi-Qiang You,  Ying Zhu,  B. Alam,  B. Albrecht,  
 A. Aldossary,  E. Alguire,  J. H. Andersen,  V. Athavale,  D. Barton,  
 K. Begam,  A. Behn,  N. Bellonzi,  Y. A. Bernard,  E. J. Berquist,  
 H. Burton,  A. Carreras,  K. Carter-Fenk,  Romit Chakraborty,  
 Chandrima Chakravarty,  Junhan Chen,  A. D. Chien,  K. D. Closser,  
 V. Cofer-Shabica,  L. Cunha,  S. Dasgupta,  Jia Deng,  M. de Wergifosse,  
 M. Diedenhofen,  Hainam Do,  S. Ehlert,  Po-Tung Fang,  S. Fatehi,  
 Qingguo Feng,  T. Friedhoff,  B. Ganoe,  J. Gayvert,  Qinghui Ge,  
 G. Gidofalvi,  M. Goldey,  J. Gomes,  C. Gonzalez-Espinoza,  S. Gulania,  
 A. Gunina,  J. A. Gyamfi,  M. W. D. Hanson-Heine,  P. H. P. Harbach,  
 A. W. Hauser,  M. F. Herbst,  M. Hernandez Vera,  M. Hodecker,  
 Z. C. Holden,  S. Houck,  Xunkun Huang,  Kerwin Hui,  B. C. Huynh,  
 K. Ikeda,  M. Ivanov,  Hyunjun Ji,  Zuxin Jin,  Hanjie Jiang,  B. Kaduk,  
 S. Kaehler,  R. Kang,  K. Khistyaev,  Jaehoon Kim,  Yongbin Kim,  
 P. Klunzinger,  Z. Koczor-Benda,  Joong Hoon Koh,  D. Kosenkov,  
 Saikiran Kotaru,  L. Koulias,  T. Kowalczyk,  C. M. Krauter,  K. Kue,  
 A. Kunitsa,  T. Kus,  A. Landau,  K. V. Lawler,  D. Lefrancois,  S. Lehtola,  
 Rain Li,  Shaozhi Li,  Yi-Pei Li,  Jiashu Liang,  M. Liebenthal,  
 Hung-Hsuan Lin,  You-Sheng Lin,  Fenglai Liu,  Kuan-Yu Liu,  
 M. Loipersberger,  A. Luenser,  C. Malbon,  A. Manjanath,  P. Manohar,  
 E. Mansoor,  S. F. Manzer,  Shan-Ping Mao,  A. V. Marenich,  T. Markovich,  
 S. Mason,  F. Matz,  S. A. Maurer,  P. F. McLaughlin,  M. F. S. J. Menger,  
 J.-M. Mewes,  S. A. Mewes,  P. Morgante,  Mohammad Mostafanejad,  
 J. W. Mullinax,  K. J. Oosterbaan,  G. Paran,  V. Parravicini,  
 Alexander C. Paul,  Suranjan K. Paul,  F. Pavosevic,  Zheng Pei,  S. Prager,  
 E. I. Proynov,  E. Ramos,  B. Rana,  A. E. Rask,  A. Rettig,  R. M. Richard,  
 F. Rob,  E. Rossomme,  T. Scheele,  M. Scheurer,  M. Schneider,  
 P. E. Schneider,  N. Sergueev,  S. M. Sharada,  Hengyuan Shen,  
 W. Skomorowski,  D. W. Small,  C. J. Stein,  Yingli Su,  Yu-Chuan Su,  
 E. J. Sundstrom,  Zhen Tao,  J. Thirman,  Hung-Yi Tsai,  T. Tsuchimochi,  
 N. M. Tubman,  C. Utku,  S. P. Veccham,  O. Vydrov,  J. Wenzel,  
 Jonathan Wong,  J. Witte,  A. Yamada,  Chou-Hsun Yang,  Kun Yao,  
 S. Yeganeh,  S. R. Yost,  A. Zech,  F. Zeller,  Igor Ying Zhang,  
 Xing Zhang,  Yu Zhang,  D. Zuev,  A. Aspuru-Guzik,  A. T. Bell,  
 N. A. Besley,  K. B. Bravaya,  B. R. Brooks,  D. Casanova,  Jeng-Da Chai,  
 Hsing-Ta Chen,  S. Coriani,  C. J. Cramer,  A. E. DePrince, III,  
 R. A. DiStasio Jr.,  A. Dreuw,  B. D. Dunietz,  T. R. Furlani,  
 W. A. Goddard III,  S. Grimme,  S. Hammes-Schiffer,  T. Head-Gordon,  
 W. J. Hehre,  Chao-Ping Hsu,  T.-C. Jagau,  Yousung Jung,  A. Klamt,  
 Jing Kong,  D. S. Lambrecht,  Xiangyuan Li,  WanZhen Liang,  N. J. Mayhall,  
 C. W. McCurdy,  J. B. Neaton,  T. Neudecker,  C. Ochsenfeld,  
 J. A. Parkhill,  R. Peverati,  V. A. Rassolov,  Haisheng Ren,  Yihan Shao,  
 L. V. Slipchenko,  R. P. Steele,  J. E. Subotnik,  A. J. W. Thom,  
 A. Tkatchenko,  D. G. Truhlar,  T. Van Voorhis,  Fan Wang,  
 T. A. Wesolowski,  K. B. Whaley,  H. L. Woodcock III,  P. M. Zimmerman,  
 S. Faraji,  P. M. W. Gill,  M. Head-Gordon,  J. M. Herbert,  A. I. Krylov

 Contributors to earlier versions of Q-Chem not listed above: 
 R. D. Adamson,  B. Austin,  R. Baer,  J. Baker,  G. J. O. Beran,  
 K. Brandhorst,  S. T. Brown,  E. F. C. Byrd,  Arup K. Chakraborty,  
 G. K. L. Chan,  Chun-Min Chang,  Yunqing Chen,  C.-L. Cheng,  
 Siu Hung Chien,  D. M. Chipman,  D. L. Crittenden,  H. Dachsel,  
 R. J. Doerksen,  A. D. Dutoi,  R. G. Edgar,  J. Fosso-Tande,  
 L. Fusti-Molnar,  D. Ghosh,  A. Ghysels,  A. Golubeva-Zadorozhnaya,  
 J. Gonthier,  M. S. Gordon,  S. R. Gwaltney,  G. Hawkins,  J. E. Herr,  
 A. Heyden,  S. Hirata,  E. G. Hohenstein,  G. Kedziora,  F. J. Keil,  
 C. Kelley,  Jihan Kim,  R. A. King,  R. Z. Khaliullin,  P. P. Korambath,  
 W. Kurlancheek,  A. Laurent,  A. M. Lee,  M. S. Lee,  S. V. Levchenko,  
 Ching Yeh Lin,  D. Liotard,  E. Livshits,  R. C. Lochan,  I. Lotan,  
 L. A. Martinez-Martinez,  P. E. Maslen,  N. Nair,  D. P. O'Neill,  
 D. Neuhauser,  E. Neuscamman,  C. M. Oana,  R. Olivares-Amaya,  R. Olson,  
 T. M. Perrine,  B. Peters,  P. A. Pieniazek,  A. Prociuk,  Y. M. Rhee,  
 J. Ritchie,  M. A. Rohrdanz,  E. Rosta,  N. J. Russ,  H. F. Schaefer III,  
 M. W. Schmidt,  N. E. Schultz,  S. Sharma,  N. Shenvi,  C. D. Sherrill,  
 A. C. Simmonett,  A. Sodt,  T. Stein,  D. Stuck,  K. S. Thanthiriwatte,  
 V. Vanovschi,  L. Vogt,  Tao Wang,  A. Warshel,  M. A. Watson,  
 C. F. Williams,  Q. Wu,  X. Xu,  Jun Yang,  W. Zhang,  Yan Zhao

   Please cite Q-Chem as follows:
  "Software for the frontiers of quantum chemistry:
   An overview of developments in the Q-Chem 5 package"
   J. Chem. Phys. 155, 084801 (2021)
   https://doi.org/10.1063/5.0055522 (open access)

 Q-Chem 6.0.1 for Intel X86 EM64T Linux

 Parts of Q-Chem use Armadillo 9.900.5 (Nocturnal Misbehaviour).
 http://arma.sourceforge.net/

 Q-Chem begins on Mon Dec  4 20:47:18 2023  

 Host: atlas-192
0

     Scratch files written to ./qchem52730//
 Processing $rem in /scratch/abel/SOFTWARE/qchem/config/preferences:
 Processing $rem in /dipc/acebg/.qchemrc:

 Checking the input file for inconsistencies... 	...done.

--------------------------------------------------------------
User input:
--------------------------------------------------------------
$comment
 TD-DFT/TDA CALCULATION
$end

$molecule
 READ naphthalene.molecule
$end

$rem
!**REFERENCE***     
JOBTYPE            SP
EXCHANGE           GEN   !gen:specify in $xc_functional
CORRELATION        NONE
BASIS              def2-TZVP 

!***SCF REFERENCE***
INPUT_BOHR          TRUE
!SKIP_SCFMAN        FALSE
!UNRESTRICTED       FALSE !rectricted-TDDFT not avail in doublets
!SCF_GUESS          core
!SCF_GUESS_MIX      FALSE
!SCF_GUESS_ALWAYS   FALSE
MAX_SCF_CYCLES     999
!SCF_CONVERGENCE    10
SCF_ALGORITHM      DIIS_GDM !DIIS,DM,DIIS_DM,GDM,DIIS_GDM,GD

!SYMMETRY           TRUE !use of symmetry for calculating integrals
!SYM_IGNORE         FALSE !turn off using symmetry
!SYM_TOL            5 !tolerance for determining point group

!THRESH             14
!SCF_FINAL_PRINT    2 !0,1,2,3

!****CIS****
CIS_N_ROOTS        50
!CIS_CONVERGENCE   10
MAX_CIS_CYCLES     200
!CIS_SINGLETS      true
!CIS_TRIPLETS      true
CALC_SOC           2 !not available in doublets in TDDFT
!RPA                FALSE !RPA=1 TDA calc used as guess of TDDFT

!Spin-orbit coupling calculations are implemented for
!restricted, unrestricted CIS/TDDFT, and SF TDDFT
!using Wigner-Eckart theorem: Try CALC_SOC = 2.

!****MEMORY****
!MEM_TOTAL          80000        !Default 2000 MB
!MEM_STATIC         25000         !Default 64 MB

!**Molecular Properties and Analysis **
!POP_MULLIKEN       FALSE   !Run Mulliken population analysis
!LOWDIN_POPULATION  FALSE  !Run Löwdin population analysis
!GUI                0
!STATE_ANALYSIS     TRUE
!MOLDEN_FORMAT      FALSE
!PRINT_ORBITALS     5
$end

$xc_functional
!**50-50 functional**
X  HF    0.50
X  S     0.08
X  B     0.42
C  VWN   0.19
C  LYP   0.81
$end

--------------------------------------------------------------
 ----------------------------------------------------------------
             Standard Nuclear Orientation (Bohr)
    I     Atom           X                Y                Z
 ----------------------------------------------------------------
    1      C       0.0000000000    -1.3623625091    -0.0000000000
    2      C      -0.0000000000     1.3623625091     0.0000000000
    3      C      -2.3376206850    -2.6436978817    -0.0000000000
    4      C      -4.6989437780    -1.2863193617     0.0000000000
    5      C      -4.6989437780     1.2863193617     0.0000000000
    6      C      -2.3376206850     2.6436978817     0.0000000000
    7      C       2.3376206850     2.6436978817     0.0000000000
    8      C       2.3376206850    -2.6436978817    -0.0000000000
    9      C       4.6989437780    -1.2863193617    -0.0000000000
   10      C       4.6989437780     1.2863193617    -0.0000000000
   11      H       2.3527347410    -4.6914688881    -0.0000000000
   12      H       6.4552948094    -2.3370951729    -0.0000000000
   13      H       6.4552948094     2.3370951729    -0.0000000000
   14      H       2.3527347410     4.6914688881     0.0000000000
   15      H      -2.3527347410    -4.6914688881    -0.0000000000
   16      H      -6.4552948094    -2.3370951729     0.0000000000
   17      H      -6.4552948094     2.3370951729     0.0000000000
   18      H      -2.3527347410     4.6914688881     0.0000000000
 ----------------------------------------------------------------
 Molecular Point Group                 D2h   NOp =  8
 Largest Abelian Subgroup              D2h   NOp =  8
 Nuclear Repulsion Energy =         454.42574361 hartrees
 There are       35 alpha and       33 beta electrons
 Requested basis set is def2-TZVP
 There are 142 shells and 358 basis functions

 Total QAlloc Memory Limit   2000 MB
 Mega-Array Size       188 MB
 MEM_STATIC part       192 MB

 A cutoff of  1.0D-12 yielded   9088 shell pairs
 There are     59328 function pairs (     77271 Cartesian)
 Smallest overlap matrix eigenvalue = 6.97E-06

 Scale SEOQF with 1.000000e-01/1.000000e-01/1.000000e+00

 Standard Electronic Orientation quadrupole field applied
 Nucleus-field energy     =     0.0000000153 hartrees
 Guess from superposition of atomic densities
 Warning:  Energy on first SCF cycle will be non-variational
 SAD guess density has 68.000000 electrons

 -----------------------------------------------------------------------
  General SCF calculation program by
  Eric Jon Sundstrom, Paul Horn, Yuezhi Mao, Dmitri Zuev, Alec White,
  David Stuck, Shaama M.S., Shane Yost, Joonho Lee, David Small,
  Daniel Levine, Susi Lehtola, Hugh Burton, Evgeny Epifanovsky,
  Bang C. Huynh
 -----------------------------------------------------------------------
 Exchange:     0.5000 Hartree-Fock + 0.0800 Slater + 0.4200 B88
 Correlation:  0.1900 VWN5 + 0.8100 LYP
 Using SG-1 standard quadrature grid
 A unrestricted SCF calculation will be
 performed using DIIS, GDM
 SCF converges when RMS gradient is below 1.0e-08
 ---------------------------------------
  Cycle       Energy         DIIS error
 ---------------------------------------
    1    -388.7325517632      1.54e-02  
    2    -385.5465926270      1.08e-03  Done DIIS. Switching to GDM
 ---------------------------------------
  Cycle       Energy        RMS Gradient
 ---------------------------------------
    1    -385.5465926270      8.45e-02   Descent step
    2    -385.6309871751      3.20e-02   Normal BFGS step
    3    -385.6427222109      2.12e-02   Normal BFGS step
    4    -385.6438820332      1.33e-02   Normal BFGS step
    5    -385.6445454877      2.84e-03   Normal BFGS step
    6    -385.6446209164      1.76e-03   Normal BFGS step
    7    -385.6446367463      6.27e-04   Normal BFGS step
    8    -385.6446386136      1.62e-04   Normal BFGS step
    9    -385.6446387866      5.31e-05   Normal BFGS step
   10    -385.6446387968      1.31e-05   Normal BFGS step
   11    -385.6446387979      1.00e-06   Normal BFGS step
   12    -385.6446387977      2.92e-07   Normal BFGS step
   13    -385.6446387979      5.35e-08   Normal BFGS step
   14    -385.6446387982      2.61e-08   Normal BFGS step
  GDM::WARNING energy changes are now smaller than effective accuracy.
  GDM::        calculation will continue, but THRESH should be increased
  GDM::        or SCF_CONVERGENCE decreased. 
  GDM::        effective_thresh = 2.54e-09
   15    -385.6446387979      1.65e-08   Normal BFGS step
   16    -385.6446387981      4.82e-09  Convergence criterion met
 ---------------------------------------
 SCF time:   CPU 203.80s  wall 208.00s 
<S^2> =          2.061067535
 SCF   energy in the final basis set =     -385.6446387981
 Total energy in the final basis set =     -385.6446387981
 

 CIS/TDDFT memory preview:
 --------------------------
	NOV = NOa*NVa + NOb*NVb = 22030
	NRoots = 50, max iter = 200, max vectors = 10000
	Size of each subspace vector: 0.17 Mb
	Davidson algorithm may add up to 2 x NOV x NRoots (= 16.8 Mb) per iteration
	Max memory = 3361.5 Mb (worst case scenario)
	Currently available memory = 2000.0 Mb

	In case of problems:
	(a) increase memory (MEM_TOTAL = 3362 can hold 10000 subspace vectors), or
	(b) request fewer states (CIS_N_ROOTS = 29 will fit in current MEM_TOTAL), or
	(c) reduce MAX_CIS_SUBSPACE (= 5949 will fit in current MEM_TOTAL).
	Reducing MAX_CIS_SUBSPACE may hamper convergence.

 Direct TDDFT/TDA calculation will be performed
 Exchange:     0.5000 Hartree-Fock + 0.0800 Slater + 0.4200 B88
 Correlation:  0.1900 VWN5 + 0.8100 LYP
 Using SG-1 standard quadrature grid
 CIS energy converged when residual is below 10e- 6
 ---------------------------------------------------
 Iter    Rts Conv    Rts Left    Ttl Dev     Max Dev
 ---------------------------------------------------
   1         0          50      0.020861    0.001354
   2         0          50      0.006207    0.000700
   3         0          50      0.002345    0.000567
   4         0          50      0.001941    0.000408
   5        20          30      0.000927    0.000281
   6        33          17      0.000285    0.000071
   7        38          12      0.000104    0.000027
   8        44           6      0.000083    0.000046
   9        47           3      0.000037    0.000016
  10        49           1      0.000029    0.000011
  11        49           1      0.000022    0.000004
  12        49           1      0.000019    0.000001
  13        50           0      0.000018    0.000001    Roots Converged
 ---------------------------------------------------
 
 ---------------------------------------------------
         TDDFT/TDA Excitation Energies              
 ---------------------------------------------------

 Excited state   1: excitation energy (eV) =    1.8200
 Total energy for state  1:                  -385.57775664 au
    <S**2>     :  2.0384
    Trans. Mom.:  0.0388 X   0.0000 Y   0.0000 Z
    Strength   :     0.0000671853
    S(    2) --> V(    2) amplitude =  0.7007 alpha
    D(   33) --> S(    1) amplitude =  0.6982 beta

 Excited state   2: excitation energy (eV) =    1.8840
 Total energy for state  2:                  -385.57540375 au
    <S**2>     :  2.2204
    Trans. Mom.:  0.0000 X   0.0000 Y  -0.0000 Z
    Strength   :     0.0000000000
    S(    2) --> V(    1) amplitude =  0.7162 alpha
    D(   32) --> S(    1) amplitude = -0.6635 beta

 Excited state   3: excitation energy (eV) =    2.4410
 Total energy for state  3:                  -385.55493468 au
    <S**2>     :  2.0566
    Trans. Mom.:  0.0000 X   0.0000 Y   0.0000 Z
    Strength   :     0.0000000000
    S(    2) --> V(    1) amplitude =  0.6737 alpha
    D(   32) --> S(    1) amplitude =  0.7206 beta

 Excited state   4: excitation energy (eV) =    3.3794
 Total energy for state  4:                  -385.52044756 au
    <S**2>     :  2.5685
    Trans. Mom.: -0.0000 X  -0.2229 Y  -0.0000 Z
    Strength   :     0.0041142222
    D(   33) --> V(    1) amplitude = -0.3091 alpha
    S(    2) --> V(    6) amplitude = -0.5186 alpha
    D(   31) --> S(    1) amplitude =  0.7181 beta
    D(   32) --> V(    1) amplitude =  0.2864 beta

 Excited state   5: excitation energy (eV) =    3.4934
 Total energy for state  5:                  -385.51625944 au
    <S**2>     :  2.0713
    Trans. Mom.: -1.9629 X   0.0000 Y   0.0000 Z
    Strength   :     0.3297476255
    S(    1) --> V(    1) amplitude =  0.1767 alpha
    S(    2) --> V(    2) amplitude =  0.6764 alpha
    D(   32) --> S(    2) amplitude =  0.1869 beta
    D(   33) --> S(    1) amplitude = -0.6722 beta

 Excited state   6: excitation energy (eV) =    4.4543
 Total energy for state  6:                  -385.48094488 au
    <S**2>     :  2.0981
    Trans. Mom.: -0.0000 X   0.0000 Y  -0.0000 Z
    Strength   :     0.0000000000
    S(    2) --> V(    3) amplitude =  0.9811 alpha

 Excited state   7: excitation energy (eV) =    4.7050
 Total energy for state  7:                  -385.47173424 au
    <S**2>     :  2.1072
    Trans. Mom.: -0.0000 X  -0.0000 Y   0.0308 Z
    Strength   :     0.0001093099
    D(   30) --> S(    1) amplitude =  0.9802 beta

 Excited state   8: excitation energy (eV) =    4.7738
 Total energy for state  8:                  -385.46920537 au
    <S**2>     :  2.0624
    Trans. Mom.: -0.0000 X   0.0000 Y   0.0000 Z
    Strength   :     0.0000000000
    S(    1) --> V(    2) amplitude =  0.5955 alpha
    S(    2) --> V(   14) amplitude = -0.1555 alpha
    D(   28) --> S(    1) amplitude =  0.3742 beta
    D(   33) --> S(    2) amplitude =  0.6629 beta

 Excited state   9: excitation energy (eV) =    4.7825
 Total energy for state  9:                  -385.46888649 au
    <S**2>     :  2.0889
    Trans. Mom.:  0.0000 X   0.0000 Y   0.0000 Z
    Strength   :     0.0000000000
    S(    2) --> V(    5) amplitude = -0.6883 alpha
    D(   29) --> S(    1) amplitude =  0.6992 beta

 Excited state  10: excitation energy (eV) =    4.8335
 Total energy for state 10:                  -385.46700957 au
    <S**2>     :  2.0888
    Trans. Mom.:  0.0000 X  -0.0000 Y  -0.0000 Z
    Strength   :     0.0000000000
    S(    2) --> V(    5) amplitude =  0.7001 alpha
    D(   29) --> S(    1) amplitude =  0.6908 beta

 Excited state  11: excitation energy (eV) =    4.8443
 Total energy for state 11:                  -385.46661543 au
    <S**2>     :  2.1172
    Trans. Mom.:  0.0000 X  -0.0000 Y  -0.0450 Z
    Strength   :     0.0002404824
    S(    2) --> V(    4) amplitude =  0.9809 alpha

 Excited state  12: excitation energy (eV) =    5.2660
 Total energy for state 12:                  -385.45111652 au
    <S**2>     :  2.2508
    Trans. Mom.:  0.0000 X  -1.1472 Y   0.0000 Z
    Strength   :     0.1697896675
    D(   32) --> V(    2) amplitude = -0.1644 alpha
    S(    2) --> V(    6) amplitude =  0.6507 alpha
    D(   31) --> S(    1) amplitude =  0.6377 beta
    D(   32) --> V(    1) amplitude = -0.3194 beta

 Excited state  13: excitation energy (eV) =    5.4342
 Total energy for state 13:                  -385.44493521 au
    <S**2>     :  2.0917
    Trans. Mom.:  0.2287 X   0.0000 Y   0.0000 Z
    Strength   :     0.0069622292
    S(    1) --> V(    1) amplitude = -0.6468 alpha
    D(   32) --> S(    2) amplitude =  0.7408 beta

 Excited state  14: excitation energy (eV) =    5.5827
 Total energy for state 14:                  -385.43947891 au
    <S**2>     :  2.1089
    Trans. Mom.:  0.0000 X  -0.0000 Y  -0.0000 Z
    Strength   :     0.0000000000
    S(    2) --> V(    7) amplitude =  0.9758 alpha

 Excited state  15: excitation energy (eV) =    5.6528
 Total energy for state 15:                  -385.43690378 au
    <S**2>     :  3.5234
    Trans. Mom.:  0.0000 X   0.2362 Y   0.0000 Z
    Strength   :     0.0077244576
    D(   32) --> V(    2) amplitude = -0.2159 alpha
    D(   33) --> V(    1) amplitude =  0.5394 alpha
    S(    2) --> V(    6) amplitude = -0.4587 alpha
    D(   32) --> V(    1) amplitude = -0.5044 beta
    D(   33) --> V(    2) amplitude = -0.3533 beta

 Excited state  16: excitation energy (eV) =    5.7694
 Total energy for state 16:                  -385.43261881 au
    <S**2>     :  2.1043
    Trans. Mom.:  0.0000 X   0.0000 Y   0.0000 Z
    Strength   :     0.0000000000
    S(    2) --> V(    8) amplitude =  0.9670 alpha

 Excited state  17: excitation energy (eV) =    5.7979
 Total energy for state 17:                  -385.43156838 au
    <S**2>     :  3.5341
    Trans. Mom.: -0.0000 X   0.0000 Y   0.0000 Z
    Strength   :     0.0000000000
    D(   32) --> V(    1) amplitude = -0.1764 alpha
    D(   33) --> V(    2) amplitude =  0.6475 alpha
    D(   32) --> V(    2) amplitude =  0.1957 beta
    D(   33) --> V(    1) amplitude =  0.6781 beta

 Excited state  18: excitation energy (eV) =    5.9726
 Total energy for state 18:                  -385.42514880 au
    <S**2>     :  2.4225
    Trans. Mom.:  0.0000 X   0.0000 Y   0.0000 Z
    Strength   :     0.0000000000
    D(   29) --> V(    1) amplitude = -0.1833 alpha
    D(   33) --> V(    6) amplitude =  0.1800 alpha
    S(    2) --> V(   14) amplitude = -0.1729 alpha
    D(   28) --> S(    1) amplitude =  0.6337 beta
    D(   31) --> V(    1) amplitude = -0.3094 beta
    D(   33) --> S(    2) amplitude = -0.5791 beta

 Excited state  19: excitation energy (eV) =    5.9931
 Total energy for state 19:                  -385.42439727 au
    <S**2>     :  2.1748
    Trans. Mom.:  0.0000 X   0.0000 Y  -0.0000 Z
    Strength   :     0.0000000000
    S(    2) --> V(    8) amplitude = -0.1576 alpha
    D(   27) --> S(    1) amplitude =  0.9337 beta
    D(   29) --> V(    1) amplitude = -0.1883 beta

 Excited state  20: excitation energy (eV) =    6.0329
 Total energy for state 20:                  -385.42293509 au
    <S**2>     :  2.1098
    Trans. Mom.:  0.0000 X  -0.0000 Y  -0.0000 Z
    Strength   :     0.0000000000
    S(    2) --> V(    9) amplitude =  0.9791 alpha

 Excited state  21: excitation energy (eV) =    6.1844
 Total energy for state 21:                  -385.41736506 au
    <S**2>     :  2.0902
    Trans. Mom.: -0.0000 X   0.0000 Y   0.0000 Z
    Strength   :     0.0000000000
    S(    2) --> V(   11) amplitude =  0.9833 alpha

 Excited state  22: excitation energy (eV) =    6.3207
 Total energy for state 22:                  -385.41235756 au
    <S**2>     :  2.1108
    Trans. Mom.:  0.0000 X  -0.0000 Y   0.1663 Z
    Strength   :     0.0042812791
    S(    2) --> V(   10) amplitude =  0.9734 alpha

 Excited state  23: excitation energy (eV) =    6.3348
 Total energy for state 23:                  -385.41183953 au
    <S**2>     :  2.2293
    Trans. Mom.:  0.0000 X  -0.0000 Y   0.0000 Z
    Strength   :     0.0000000000
    D(   29) --> V(    1) amplitude =  0.1731 alpha
    D(   33) --> V(    6) amplitude = -0.2346 alpha
    S(    1) --> V(    2) amplitude =  0.7559 alpha
    D(   28) --> S(    1) amplitude = -0.3050 beta
    D(   33) --> S(    2) amplitude = -0.4203 beta

 Excited state  24: excitation energy (eV) =    6.3593
 Total energy for state 24:                  -385.41094022 au
    <S**2>     :  2.2322
    Trans. Mom.:  0.0000 X  -0.0000 Y  -0.0000 Z
    Strength   :     0.0000000000
    D(   26) --> S(    1) amplitude =  0.9266 beta
    D(   30) --> V(    1) amplitude =  0.2721 beta

 Excited state  25: excitation energy (eV) =    6.4343
 Total energy for state 25:                  -385.40818181 au
    <S**2>     :  3.5374
    Trans. Mom.: -0.0000 X   0.0000 Y   0.0000 Z
    Strength   :     0.0000000000
    D(   33) --> V(    2) amplitude = -0.5363 alpha
    D(   31) --> S(    2) amplitude = -0.3331 beta
    D(   32) --> V(    2) amplitude = -0.4204 beta
    D(   33) --> V(    1) amplitude =  0.6262 beta

 Excited state  26: excitation energy (eV) =    6.4350
 Total energy for state 26:                  -385.40815646 au
    <S**2>     :  2.0764
    Trans. Mom.:  2.8317 X  -0.0000 Y   0.0000 Z
    Strength   :     1.2641213312
    S(    1) --> V(    1) amplitude =  0.7148 alpha
    S(    2) --> V(    2) amplitude = -0.1654 alpha
    D(   32) --> S(    2) amplitude =  0.6111 beta
    D(   33) --> S(    1) amplitude =  0.1617 beta

 Excited state  27: excitation energy (eV) =    6.7998
 Total energy for state 27:                  -385.39475159 au
    <S**2>     :  2.3846
    Trans. Mom.:  0.0000 X   0.0000 Y  -0.0000 Z
    Strength   :     0.0000000000
    D(   32) --> V(    1) amplitude = -0.4464 alpha
    D(   33) --> V(    2) amplitude = -0.3688 alpha
    S(    1) --> V(    6) amplitude = -0.4349 alpha
    D(   31) --> S(    2) amplitude =  0.5814 beta
    D(   32) --> V(    2) amplitude =  0.3173 beta

 Excited state  28: excitation energy (eV) =    6.8136
 Total energy for state 28:                  -385.39424227 au
    <S**2>     :  3.7046
    Trans. Mom.: -0.0000 X   0.2056 Y  -0.0000 Z
    Strength   :     0.0070594921
    D(   32) --> V(    2) amplitude =  0.4460 alpha
    D(   33) --> V(    1) amplitude =  0.3809 alpha
    S(    2) --> V(    6) amplitude = -0.2124 alpha
    D(   33) --> V(    2) amplitude =  0.7481 beta

 Excited state  29: excitation energy (eV) =    6.8154
 Total energy for state 29:                  -385.39417632 au
    <S**2>     :  2.1548
    Trans. Mom.:  0.0000 X  -0.0000 Y  -0.1105 Z
    Strength   :     0.0020373113
    D(   25) --> S(    1) amplitude =  0.9368 beta
    D(   27) --> S(    2) amplitude =  0.2084 beta
    D(   29) --> V(    2) amplitude = -0.1615 beta

 Excited state  30: excitation energy (eV) =    6.8585
 Total energy for state 30:                  -385.39259349 au
    <S**2>     :  2.0979
    Trans. Mom.: -0.0000 X   0.0000 Y   0.0000 Z
    Strength   :     0.0000000000
    D(   24) --> S(    1) amplitude =  0.8609 beta
    D(   30) --> S(    2) amplitude =  0.4310 beta

 Excited state  31: excitation energy (eV) =    7.1585
 Total energy for state 31:                  -385.38156817 au
    <S**2>     :  2.1911
    Trans. Mom.:  0.0000 X  -0.7789 Y   0.0000 Z
    Strength   :     0.1064074348
    D(   32) --> V(    2) amplitude = -0.4692 alpha
    D(   33) --> V(    1) amplitude =  0.5567 alpha
    D(   32) --> V(    1) amplitude =  0.6440 beta

 Excited state  32: excitation energy (eV) =    7.1658
 Total energy for state 32:                  -385.38129994 au
    <S**2>     :  2.7133
    Trans. Mom.: -0.0000 X   0.0000 Y   0.0000 Z
    Strength   :     0.0000000000
    D(   29) --> V(    1) amplitude =  0.2116 alpha
    D(   33) --> V(    6) amplitude = -0.2389 alpha
    S(    2) --> V(   14) amplitude =  0.5244 alpha
    D(   28) --> S(    1) amplitude =  0.5596 beta
    D(   31) --> V(    1) amplitude =  0.4329 beta
    D(   32) --> V(   10) amplitude = -0.2514 beta

 Excited state  33: excitation energy (eV) =    7.1871
 Total energy for state 33:                  -385.38051800 au
    <S**2>     :  2.1231
    Trans. Mom.:  0.0000 X   0.0000 Y   0.0000 Z
    Strength   :     0.0000000000
    S(    2) --> V(   12) amplitude =  0.9550 alpha

 Excited state  34: excitation energy (eV) =    7.2967
 Total energy for state 34:                  -385.37648907 au
    <S**2>     :  2.1329
    Trans. Mom.:  0.0000 X   0.0000 Y   0.0005 Z
    Strength   :     0.0000000516
    S(    2) --> V(   13) amplitude =  0.9812 alpha

 Excited state  35: excitation energy (eV) =    7.4795
 Total energy for state 35:                  -385.36977143 au
    <S**2>     :  2.1629
    Trans. Mom.:  0.0000 X  -0.0000 Y  -0.0000 Z
    Strength   :     0.0000000000
    D(   22) --> S(    1) amplitude =  0.6182 beta
    D(   29) --> S(    2) amplitude = -0.7148 beta
    D(   30) --> V(    1) amplitude =  0.1580 beta

 Excited state  36: excitation energy (eV) =    7.6733
 Total energy for state 36:                  -385.36264949 au
    <S**2>     :  2.4269
    Trans. Mom.:  0.0000 X  -0.0000 Y  -0.0000 Z
    Strength   :     0.0000000000
    D(   32) --> V(    1) amplitude = -0.3169 alpha
    D(   33) --> V(    2) amplitude = -0.1944 alpha
    D(   28) --> V(    2) amplitude =  0.1803 beta
    D(   31) --> S(    2) amplitude = -0.5642 beta
    D(   32) --> V(    2) amplitude =  0.6664 beta

 Excited state  37: excitation energy (eV) =    7.6960
 Total energy for state 37:                  -385.36181708 au
    <S**2>     :  2.6025
    Trans. Mom.: -0.0000 X  -0.0000 Y   0.0000 Z
    Strength   :     0.0000000000
    D(   29) --> V(    1) amplitude = -0.2556 alpha
    D(   33) --> V(    6) amplitude =  0.2100 alpha
    S(    2) --> V(   14) amplitude =  0.8037 alpha
    D(   31) --> V(    1) amplitude = -0.3819 beta
    D(   32) --> V(   10) amplitude =  0.1704 beta

 Excited state  38: excitation energy (eV) =    7.7437
 Total energy for state 38:                  -385.36006277 au
    <S**2>     :  2.3244
    Trans. Mom.:  0.0000 X   0.0000 Y  -0.0000 Z
    Strength   :     0.0000000000
    S(    1) --> V(    3) amplitude =  0.2233 alpha
    D(   23) --> S(    1) amplitude = -0.8557 beta
    D(   27) --> V(    1) amplitude = -0.2831 beta

 Excited state  39: excitation energy (eV) =    7.8221
 Total energy for state 39:                  -385.35718229 au
    <S**2>     :  2.0867
    Trans. Mom.:  0.0000 X  -0.0000 Y   0.0000 Z
    Strength   :     0.0000000000
    S(    1) --> V(    3) amplitude =  0.2254 alpha
    S(    1) --> V(   11) amplitude =  0.1730 alpha
    S(    2) --> V(   15) amplitude =  0.9339 alpha

 Excited state  40: excitation energy (eV) =    7.8463
 Total energy for state 40:                  -385.35629299 au
    <S**2>     :  2.1291
    Trans. Mom.: -0.0000 X   0.0000 Y  -0.0000 Z
    Strength   :     0.0000000000
    S(    1) --> V(    5) amplitude = -0.2175 alpha
    S(    2) --> V(   16) amplitude =  0.9334 alpha

 Excited state  41: excitation energy (eV) =    7.8939
 Total energy for state 41:                  -385.35454344 au
    <S**2>     :  2.1420
    Trans. Mom.:  0.0000 X  -0.0000 Y  -0.0000 Z
    Strength   :     0.0000000000
    D(   32) --> V(    4) amplitude = -0.1545 alpha
    S(    1) --> V(    3) amplitude =  0.8963 alpha
    S(    2) --> V(   15) amplitude = -0.2023 alpha
    D(   23) --> S(    1) amplitude =  0.2413 beta

 Excited state  42: excitation energy (eV) =    8.0149
 Total energy for state 42:                  -385.35009704 au
    <S**2>     :  2.3017
    Trans. Mom.: -0.4098 X   0.0000 Y  -0.0000 Z
    Strength   :     0.0329770507
    S(    2) --> V(   17) amplitude =  0.8789 alpha
    D(   28) --> S(    2) amplitude =  0.2756 beta
    D(   31) --> V(    2) amplitude = -0.2121 beta
    D(   33) --> V(   10) amplitude =  0.1912 beta

 Excited state  43: excitation energy (eV) =    8.0345
 Total energy for state 43:                  -385.34937788 au
    <S**2>     :  3.2300
    Trans. Mom.:  0.0000 X  -0.0000 Y  -0.1189 Z
    Strength   :     0.0027831900
    D(   31) --> V(    4) amplitude = -0.3096 beta
    D(   32) --> V(    3) amplitude =  0.9215 beta

 Excited state  44: excitation energy (eV) =    8.1806
 Total energy for state 44:                  -385.34400711 au
    <S**2>     :  2.7027
    Trans. Mom.:  0.0000 X  -0.0000 Y  -0.0000 Z
    Strength   :     0.0000000000
    S(    1) --> V(    4) amplitude = -0.1883 alpha
    D(   24) --> S(    1) amplitude = -0.3036 beta
    D(   30) --> S(    2) amplitude =  0.5562 beta
    D(   33) --> V(    3) amplitude =  0.6970 beta

 Excited state  45: excitation energy (eV) =    8.1887
 Total energy for state 45:                  -385.34371049 au
    <S**2>     :  2.5642
    Trans. Mom.:  0.0000 X  -0.0000 Y   0.0000 Z
    Strength   :     0.0000000000
    D(   24) --> S(    1) amplitude =  0.3422 beta
    D(   30) --> S(    2) amplitude = -0.6439 beta
    D(   33) --> V(    3) amplitude =  0.6181 beta

 Excited state  46: excitation energy (eV) =    8.1949
 Total energy for state 46:                  -385.34348288 au
    <S**2>     :  3.2128
    Trans. Mom.: -0.0000 X  -0.0000 Y   0.0956 Z
    Strength   :     0.0018340667
    D(   23) --> V(    2) amplitude = -0.1602 alpha
    D(   31) --> V(    2) amplitude = -0.9526 alpha

 Excited state  47: excitation energy (eV) =    8.2028
 Total energy for state 47:                  -385.34319178 au
    <S**2>     :  2.6780
    Trans. Mom.:  0.0000 X  -0.0000 Y   0.0000 Z
    Strength   :     0.0000000000
    S(    1) --> V(    5) amplitude =  0.7238 alpha
    S(    2) --> V(   16) amplitude =  0.1982 alpha
    D(   31) --> V(    3) amplitude = -0.2286 beta
    D(   32) --> V(    4) amplitude =  0.5222 beta

 Excited state  48: excitation energy (eV) =    8.2530
 Total energy for state 48:                  -385.34134726 au
    <S**2>     :  2.6694
    Trans. Mom.: -0.0000 X   0.0000 Y  -0.0000 Z
    Strength   :     0.0000000000
    S(    1) --> V(    5) amplitude = -0.5606 alpha
    D(   31) --> V(    3) amplitude = -0.2894 beta
    D(   32) --> V(    4) amplitude =  0.7141 beta

 Excited state  49: excitation energy (eV) =    8.2901
 Total energy for state 49:                  -385.33998423 au
    <S**2>     :  2.1190
    Trans. Mom.:  0.0000 X   0.0000 Y   0.0000 Z
    Strength   :     0.0000000000
    D(   32) --> V(    3) amplitude = -0.2277 alpha
    S(    1) --> V(    4) amplitude =  0.8890 alpha
    S(    2) --> V(   12) amplitude =  0.1775 alpha
    D(   33) --> V(    3) amplitude =  0.2487 beta

 Excited state  50: excitation energy (eV) =    8.3231
 Total energy for state 50:                  -385.33877132 au
    <S**2>     :  2.1530
    Trans. Mom.:  0.0000 X  -0.0000 Y   0.0000 Z
    Strength   :     0.0000000000
    D(   30) --> V(    2) amplitude = -0.1699 alpha
    S(    2) --> V(   18) amplitude =  0.9412 alpha
 
 ---------------------------------------------------
  SETman timing summary (seconds)
  CPU time              4981.58s
  System time              0.00s
  Wall time             5066.94s



            *********SPIN-ORBIT COUPLING JOB USING WIGNER–ECKART THEOREM BEGINS HERE*********

 Calculating one electron integrals:  Completed calculation of one electron integrals!
 Calculating MF integrals:  Completed calculation of MF integrals!
 Calculating S^2 values of the spin-states: S^2 values computed!
 Computing transition densities and evaluating SOCME with Libwe: 

**************************************************
 State A: Root 0
 State B: Root 1


 Analysing Sz ans S^2 of the pair of states...
 Ket state:  Computed S^2 = 2.0610675352 will be treated as 2.0000000000 Sz = 1.0000000000
 Bra state:  Computed S^2 = 2.0383501078 will be treated as 2.0000000000 Sz = 1.0000000000
 Clebsh-Gordan coefficient: <1.000,1.000;1.000,0.000|1.000,1.000> = 0.707

_______________________________
 One-electron SO (cm-1)
 Reduced matrix elements:
 <S|| Hso(L-) ||S'> = (-0.000000,-0.000000)
 <S|| Hso(L0) ||S'> = (0.000000,-0.000000)
 <S|| Hso(L+) ||S'> = (-0.000000,0.000000)

 SOCC = 0.000000


 Actual matrix elements:
       |Sz=-1.00>           |Sz=0.00>           |Sz=1.00>
 <Sz=-1.00|(0.000000,0.000000)(-0.000000,0.000000)(-0.000000,-0.000000)
 <Sz=0.00|(0.000000,0.000000)(0.000000,-0.000000)(-0.000000,0.000000)
 <Sz=1.00|(-0.000000,-0.000000)(0.000000,0.000000)(0.000000,-0.000000)
_______________________________
 Mean-field SO (cm-1)
 Reduced matrix elements:
 <S|| Hso(L-) ||S'> = (-0.000000,-0.000000)
 <S|| Hso(L0) ||S'> = (0.000000,-0.000000)
 <S|| Hso(L+) ||S'> = (-0.000000,0.000000)

 Singlet part of <S|| Hso(L0) ||S'> = (-0.000000,-0.000000) (excluded from all matrix elements)
 L-/L+ Averaged reduced matrix elements:
 <S|| Hso(L-) ||S'> = (-0.000000,-0.000000)
 <S|| Hso(L+) ||S'> = (-0.000000,0.000000)

 SOCC = 0.000000


 Actual matrix elements:
       |Sz=-1.00>           |Sz=0.00>           |Sz=1.00>
 <Sz=-1.00|(0.000000,0.000000)(-0.000000,0.000000)(-0.000000,-0.000000)
 <Sz=0.00|(0.000000,0.000000)(0.000000,-0.000000)(-0.000000,0.000000)
 <Sz=1.00|(-0.000000,-0.000000)(0.000000,0.000000)(0.000000,-0.000000)
_______________________________

**************************************************

**************************************************
 State A: Root 0
 State B: Root 2


 Analysing Sz ans S^2 of the pair of states...
 Ket state:  Computed S^2 = 2.061068 will be treated as 2.000000 Sz = 1.000000
 Bra state:  Computed S^2 = 2.220372 will be treated as 2.000000 Sz = 1.000000
 Clebsh-Gordan coefficient: <1.000,1.000;1.000,0.000|1.000,1.000> = 0.707

_______________________________
 One-electron SO (cm-1)
 Reduced matrix elements:
 <S|| Hso(L-) ||S'> = (0.000000,-0.000000)
 <S|| Hso(L0) ||S'> = (0.000000,-3.433748)
 <S|| Hso(L+) ||S'> = (0.000000,0.000000)

 SOCC = 3.433748


 Actual matrix elements:
       |Sz=-1.00>           |Sz=0.00>           |Sz=1.00>
 <Sz=-1.00|(-0.000000,2.428026)(0.000000,0.000000)(0.000000,-0.000000)
 <Sz=0.00|(-0.000000,-0.000000)(-0.000000,-0.000000)(0.000000,-0.000000)
 <Sz=1.00|(0.000000,-0.000000)(-0.000000,0.000000)(-0.000000,-2.428026)
_______________________________
 Mean-field SO (cm-1)
 Reduced matrix elements:
 <S|| Hso(L-) ||S'> = (0.000000,-0.000000)
 <S|| Hso(L0) ||S'> = (0.000000,0.103265)
 <S|| Hso(L+) ||S'> = (0.000000,0.000000)

 Singlet part of <S|| Hso(L0) ||S'> = (0.000000,0.013851) (excluded from all matrix elements)
 L-/L+ Averaged reduced matrix elements:
 <S|| Hso(L-) ||S'> = (0.000000,-0.000000)
 <S|| Hso(L+) ||S'> = (0.000000,0.000000)

 SOCC = 0.103265


 Actual matrix elements:
       |Sz=-1.00>           |Sz=0.00>           |Sz=1.00>
 <Sz=-1.00|(-0.000000,-0.073019)(0.000000,0.000000)(0.000000,0.000000)
 <Sz=0.00|(-0.000000,0.000000)(-0.000000,0.000000)(0.000000,0.000000)
 <Sz=1.00|(0.000000,0.000000)(-0.000000,0.000000)(-0.000000,0.073019)
_______________________________

**************************************************

**************************************************
 State A: Root 0
 State B: Root 3


 Analysing Sz ans S^2 of the pair of states...
 Ket state:  Computed S^2 = 2.061068 will be treated as 2.000000 Sz = 1.000000
 Bra state:  Computed S^2 = 2.056552 will be treated as 2.000000 Sz = 1.000000
 Clebsh-Gordan coefficient: <1.000,1.000;1.000,0.000|1.000,1.000> = 0.707

_______________________________
 One-electron SO (cm-1)
 Reduced matrix elements:
 <S|| Hso(L-) ||S'> = (-0.000000,-0.000000)
 <S|| Hso(L0) ||S'> = (0.000000,-0.788478)
 <S|| Hso(L+) ||S'> = (-0.000000,0.000000)

 SOCC = 0.788478


 Actual matrix elements:
       |Sz=-1.00>           |Sz=0.00>           |Sz=1.00>
 <Sz=-1.00|(0.000000,0.557538)(-0.000000,0.000000)(-0.000000,-0.000000)
 <Sz=0.00|(0.000000,-0.000000)(0.000000,-0.000000)(-0.000000,0.000000)
 <Sz=1.00|(-0.000000,-0.000000)(0.000000,0.000000)(0.000000,-0.557538)
_______________________________
 Mean-field SO (cm-1)
 Reduced matrix elements:
 <S|| Hso(L-) ||S'> = (-0.000000,-0.000000)
 <S|| Hso(L0) ||S'> = (0.000000,0.189256)
 <S|| Hso(L+) ||S'> = (-0.000000,0.000000)

 Singlet part of <S|| Hso(L0) ||S'> = (0.000000,0.050685) (excluded from all matrix elements)
 L-/L+ Averaged reduced matrix elements:
 <S|| Hso(L-) ||S'> = (-0.000000,-0.000000)
 <S|| Hso(L+) ||S'> = (-0.000000,0.000000)

 SOCC = 0.189256


 Actual matrix elements:
       |Sz=-1.00>           |Sz=0.00>           |Sz=1.00>
 <Sz=-1.00|(0.000000,-0.133824)(-0.000000,0.000000)(-0.000000,0.000000)
 <Sz=0.00|(0.000000,0.000000)(0.000000,0.000000)(-0.000000,0.000000)
 <Sz=1.00|(-0.000000,0.000000)(0.000000,0.000000)(0.000000,0.133824)
_______________________________

**************************************************

**************************************************
 State A: Root 0
 State B: Root 4


 Analysing Sz ans S^2 of the pair of states...
 Ket state:  Computed S^2 = 2.061068 will be treated as 2.000000 Sz = 1.000000
WARNING! The deviation of S^2 from the correct value is large, indicating a significant spin contamination. The results may be unreliable
 Bra state:  Computed S^2 = 2.568481 will be treated as 2.000000 Sz = 1.000000
 Clebsh-Gordan coefficient: <1.000,1.000;1.000,0.000|1.000,1.000> = 0.707

_______________________________
 One-electron SO (cm-1)
 Reduced matrix elements:
 <S|| Hso(L-) ||S'> = (-0.000000,0.000000)
 <S|| Hso(L0) ||S'> = (0.000000,0.000000)
 <S|| Hso(L+) ||S'> = (-0.000000,-0.000000)

 SOCC = 0.000000


 Actual matrix elements:
       |Sz=-1.00>           |Sz=0.00>           |Sz=1.00>
 <Sz=-1.00|(0.000000,-0.000000)(-0.000000,-0.000000)(-0.000000,0.000000)
 <Sz=0.00|(0.000000,-0.000000)(0.000000,0.000000)(-0.000000,-0.000000)
 <Sz=1.00|(-0.000000,0.000000)(0.000000,-0.000000)(0.000000,0.000000)
_______________________________
 Mean-field SO (cm-1)
 Reduced matrix elements:
 <S|| Hso(L-) ||S'> = (-0.000000,0.000000)
 <S|| Hso(L0) ||S'> = (0.000000,-0.000000)
 <S|| Hso(L+) ||S'> = (-0.000000,-0.000000)

 Singlet part of <S|| Hso(L0) ||S'> = (0.000000,0.000000) (excluded from all matrix elements)
 L-/L+ Averaged reduced matrix elements:
 <S|| Hso(L-) ||S'> = (-0.000000,0.000000)
 <S|| Hso(L+) ||S'> = (-0.000000,-0.000000)

 SOCC = 0.000000


 Actual matrix elements:
       |Sz=-1.00>           |Sz=0.00>           |Sz=1.00>
 <Sz=-1.00|(0.000000,0.000000)(-0.000000,-0.000000)(-0.000000,-0.000000)
 <Sz=0.00|(0.000000,-0.000000)(0.000000,0.000000)(-0.000000,-0.000000)
 <Sz=1.00|(-0.000000,-0.000000)(0.000000,-0.000000)(0.000000,-0.000000)
_______________________________

**************************************************

**************************************************
 State A: Root 0
 State B: Root 5


 Analysing Sz ans S^2 of the pair of states...
 Ket state:  Computed S^2 = 2.061068 will be treated as 2.000000 Sz = 1.000000
 Bra state:  Computed S^2 = 2.071344 will be treated as 2.000000 Sz = 1.000000
 Clebsh-Gordan coefficient: <1.000,1.000;1.000,0.000|1.000,1.000> = 0.707

_______________________________
 One-electron SO (cm-1)
 Reduced matrix elements:
 <S|| Hso(L-) ||S'> = (-0.000000,-0.000000)
 <S|| Hso(L0) ||S'> = (0.000000,0.000000)
 <S|| Hso(L+) ||S'> = (-0.000000,0.000000)

 SOCC = 0.000000


 Actual matrix elements:
       |Sz=-1.00>           |Sz=0.00>           |Sz=1.00>
 <Sz=-1.00|(0.000000,-0.000000)(-0.000000,0.000000)(-0.000000,0.000000)
 <Sz=0.00|(0.000000,0.000000)(0.000000,0.000000)(-0.000000,0.000000)
 <Sz=1.00|(-0.000000,0.000000)(0.000000,0.000000)(0.000000,0.000000)
_______________________________
 Mean-field SO (cm-1)
 Reduced matrix elements:
 <S|| Hso(L-) ||S'> = (-0.000000,-0.000000)
 <S|| Hso(L0) ||S'> = (0.000000,0.000000)
 <S|| Hso(L+) ||S'> = (-0.000000,0.000000)

 Singlet part of <S|| Hso(L0) ||S'> = (0.000000,0.000000) (excluded from all matrix elements)
 L-/L+ Averaged reduced matrix elements:
 <S|| Hso(L-) ||S'> = (-0.000000,-0.000000)
 <S|| Hso(L+) ||S'> = (-0.000000,0.000000)

 SOCC = 0.000000


 Actual matrix elements:
       |Sz=-1.00>           |Sz=0.00>           |Sz=1.00>
 <Sz=-1.00|(0.000000,-0.000000)(-0.000000,0.000000)(-0.000000,0.000000)
 <Sz=0.00|(0.000000,0.000000)(0.000000,0.000000)(-0.000000,0.000000)
 <Sz=1.00|(-0.000000,0.000000)(0.000000,0.000000)(0.000000,0.000000)
_______________________________

**************************************************

**************************************************
 State A: Root 0
 State B: Root 6


 Analysing Sz ans S^2 of the pair of states...
 Ket state:  Computed S^2 = 2.061068 will be treated as 2.000000 Sz = 1.000000
 Bra state:  Computed S^2 = 2.098111 will be treated as 2.000000 Sz = 1.000000
 Clebsh-Gordan coefficient: <1.000,1.000;1.000,0.000|1.000,1.000> = 0.707

_______________________________
 One-electron SO (cm-1)
 Reduced matrix elements:
 <S|| Hso(L-) ||S'> = (3.058146,0.000000)
 <S|| Hso(L0) ||S'> = (0.000000,-0.000000)
 <S|| Hso(L+) ||S'> = (3.058146,-0.000000)

 SOCC = 4.324871


 Actual matrix elements:
       |Sz=-1.00>           |Sz=0.00>           |Sz=1.00>
 <Sz=-1.00|(-0.000000,0.000000)(2.162435,-0.000000)(0.000000,-0.000000)
 <Sz=0.00|(-2.162435,-0.000000)(-0.000000,0.000000)(2.162435,-0.000000)
 <Sz=1.00|(0.000000,0.000000)(-2.162435,-0.000000)(-0.000000,-0.000000)
_______________________________
 Mean-field SO (cm-1)
 Reduced matrix elements:
 <S|| Hso(L-) ||S'> = (1.527619,0.000000)
 <S|| Hso(L0) ||S'> = (0.000000,-0.000000)
 <S|| Hso(L+) ||S'> = (1.534341,-0.000000)

 Singlet part of <S|| Hso(L0) ||S'> = (-0.000000,-0.000000) (excluded from all matrix elements)
 L-/L+ Averaged reduced matrix elements:
 <S|| Hso(L-) ||S'> = (1.530980,0.000000)
 <S|| Hso(L+) ||S'> = (1.530980,-0.000000)

 SOCC = 2.165133


 Actual matrix elements:
       |Sz=-1.00>           |Sz=0.00>           |Sz=1.00>
 <Sz=-1.00|(-0.000000,0.000000)(1.082566,-0.000000)(0.000000,-0.000000)
 <Sz=0.00|(-1.082566,-0.000000)(-0.000000,0.000000)(1.082566,-0.000000)
 <Sz=1.00|(0.000000,0.000000)(-1.082566,-0.000000)(-0.000000,-0.000000)
_______________________________

**************************************************

**************************************************
 State A: Root 0
 State B: Root 7


 Analysing Sz ans S^2 of the pair of states...
 Ket state:  Computed S^2 = 2.061068 will be treated as 2.000000 Sz = 1.000000
 Bra state:  Computed S^2 = 2.107233 will be treated as 2.000000 Sz = 1.000000
 Clebsh-Gordan coefficient: <1.000,1.000;1.000,0.000|1.000,1.000> = 0.707

_______________________________
 One-electron SO (cm-1)
 Reduced matrix elements:
 <S|| Hso(L-) ||S'> = (-0.000000,-0.000000)
 <S|| Hso(L0) ||S'> = (0.000000,0.000000)
 <S|| Hso(L+) ||S'> = (-0.000000,0.000000)

 SOCC = 0.000000


 Actual matrix elements:
       |Sz=-1.00>           |Sz=0.00>           |Sz=1.00>
 <Sz=-1.00|(0.000000,-0.000000)(-0.000000,0.000000)(-0.000000,0.000000)
 <Sz=0.00|(0.000000,0.000000)(0.000000,-0.000000)(-0.000000,0.000000)
 <Sz=1.00|(-0.000000,-0.000000)(0.000000,0.000000)(0.000000,0.000000)
_______________________________
 Mean-field SO (cm-1)
 Reduced matrix elements:
 <S|| Hso(L-) ||S'> = (-0.000000,-0.000000)
 <S|| Hso(L0) ||S'> = (0.000000,0.000000)
 <S|| Hso(L+) ||S'> = (-0.000000,0.000000)

 Singlet part of <S|| Hso(L0) ||S'> = (0.000000,0.000000) (excluded from all matrix elements)
 L-/L+ Averaged reduced matrix elements:
 <S|| Hso(L-) ||S'> = (-0.000000,-0.000000)
 <S|| Hso(L+) ||S'> = (-0.000000,0.000000)

 SOCC = 0.000000


 Actual matrix elements:
       |Sz=-1.00>           |Sz=0.00>           |Sz=1.00>
 <Sz=-1.00|(0.000000,-0.000000)(-0.000000,0.000000)(-0.000000,0.000000)
 <Sz=0.00|(0.000000,0.000000)(0.000000,-0.000000)(-0.000000,0.000000)
 <Sz=1.00|(-0.000000,-0.000000)(0.000000,0.000000)(0.000000,0.000000)
_______________________________

**************************************************

**************************************************
 State A: Root 0
 State B: Root 8


 Analysing Sz ans S^2 of the pair of states...
 Ket state:  Computed S^2 = 2.061068 will be treated as 2.000000 Sz = 1.000000
 Bra state:  Computed S^2 = 2.062431 will be treated as 2.000000 Sz = 1.000000
 Clebsh-Gordan coefficient: <1.000,1.000;1.000,0.000|1.000,1.000> = 0.707

_______________________________
 One-electron SO (cm-1)
 Reduced matrix elements:
 <S|| Hso(L-) ||S'> = (-0.000000,0.000000)
 <S|| Hso(L0) ||S'> = (0.000000,-0.665994)
 <S|| Hso(L+) ||S'> = (-0.000000,-0.000000)

 SOCC = 0.665994


 Actual matrix elements:
       |Sz=-1.00>           |Sz=0.00>           |Sz=1.00>
 <Sz=-1.00|(0.000000,0.470929)(-0.000000,-0.000000)(-0.000000,-0.000000)
 <Sz=0.00|(0.000000,-0.000000)(0.000000,-0.000000)(-0.000000,-0.000000)
 <Sz=1.00|(-0.000000,-0.000000)(0.000000,-0.000000)(0.000000,-0.470929)
_______________________________
 Mean-field SO (cm-1)
 Reduced matrix elements:
 <S|| Hso(L-) ||S'> = (-0.000000,0.000000)
 <S|| Hso(L0) ||S'> = (0.000000,-0.001593)
 <S|| Hso(L+) ||S'> = (-0.000000,-0.000000)

 Singlet part of <S|| Hso(L0) ||S'> = (-0.000000,-0.004376) (excluded from all matrix elements)
 L-/L+ Averaged reduced matrix elements:
 <S|| Hso(L-) ||S'> = (-0.000000,0.000000)
 <S|| Hso(L+) ||S'> = (-0.000000,-0.000000)

 SOCC = 0.001593


 Actual matrix elements:
       |Sz=-1.00>           |Sz=0.00>           |Sz=1.00>
 <Sz=-1.00|(0.000000,0.001127)(-0.000000,-0.000000)(-0.000000,-0.000000)
 <Sz=0.00|(0.000000,-0.000000)(0.000000,-0.000000)(-0.000000,-0.000000)
 <Sz=1.00|(-0.000000,-0.000000)(0.000000,-0.000000)(0.000000,-0.001127)
_______________________________

**************************************************

**************************************************
 State A: Root 0
 State B: Root 9


 Analysing Sz ans S^2 of the pair of states...
 Ket state:  Computed S^2 = 2.061068 will be treated as 2.000000 Sz = 1.000000
 Bra state:  Computed S^2 = 2.088940 will be treated as 2.000000 Sz = 1.000000
 Clebsh-Gordan coefficient: <1.000,1.000;1.000,0.000|1.000,1.000> = 0.707

_______________________________
 One-electron SO (cm-1)
 Reduced matrix elements:
 <S|| Hso(L-) ||S'> = (0.000000,-0.000000)
 <S|| Hso(L0) ||S'> = (0.000000,-0.000000)
 <S|| Hso(L+) ||S'> = (0.000000,0.000000)

 SOCC = 0.000000


 Actual matrix elements:
       |Sz=-1.00>           |Sz=0.00>           |Sz=1.00>
 <Sz=-1.00|(-0.000000,0.000000)(0.000000,0.000000)(0.000000,0.000000)
 <Sz=0.00|(-0.000000,0.000000)(-0.000000,-0.000000)(0.000000,0.000000)
 <Sz=1.00|(0.000000,-0.000000)(-0.000000,0.000000)(-0.000000,-0.000000)
_______________________________
 Mean-field SO (cm-1)
 Reduced matrix elements:
 <S|| Hso(L-) ||S'> = (0.000000,-0.000000)
 <S|| Hso(L0) ||S'> = (0.000000,-0.000000)
 <S|| Hso(L+) ||S'> = (0.000000,0.000000)

 Singlet part of <S|| Hso(L0) ||S'> = (-0.000000,-0.000000) (excluded from all matrix elements)
 L-/L+ Averaged reduced matrix elements:
 <S|| Hso(L-) ||S'> = (0.000000,-0.000000)
 <S|| Hso(L+) ||S'> = (0.000000,0.000000)

 SOCC = 0.000000


 Actual matrix elements:
       |Sz=-1.00>           |Sz=0.00>           |Sz=1.00>
 <Sz=-1.00|(-0.000000,0.000000)(0.000000,0.000000)(0.000000,0.000000)
 <Sz=0.00|(-0.000000,0.000000)(-0.000000,-0.000000)(0.000000,0.000000)
 <Sz=1.00|(0.000000,-0.000000)(-0.000000,0.000000)(-0.000000,-0.000000)
_______________________________

**************************************************

**************************************************
 State A: Root 0
 State B: Root 10


 Analysing Sz ans S^2 of the pair of states...
 Ket state:  Computed S^2 = 2.061068 will be treated as 2.000000 Sz = 1.000000
 Bra state:  Computed S^2 = 2.088798 will be treated as 2.000000 Sz = 1.000000
 Clebsh-Gordan coefficient: <1.000,1.000;1.000,0.000|1.000,1.000> = 0.707

_______________________________
 One-electron SO (cm-1)
 Reduced matrix elements:
 <S|| Hso(L-) ||S'> = (-0.000000,0.000000)
 <S|| Hso(L0) ||S'> = (0.000000,0.000000)
 <S|| Hso(L+) ||S'> = (-0.000000,-0.000000)

 SOCC = 0.000000


 Actual matrix elements:
       |Sz=-1.00>           |Sz=0.00>           |Sz=1.00>
 <Sz=-1.00|(0.000000,-0.000000)(-0.000000,-0.000000)(-0.000000,-0.000000)
 <Sz=0.00|(0.000000,-0.000000)(0.000000,0.000000)(-0.000000,-0.000000)
 <Sz=1.00|(-0.000000,0.000000)(0.000000,-0.000000)(0.000000,0.000000)
_______________________________
 Mean-field SO (cm-1)
 Reduced matrix elements:
 <S|| Hso(L-) ||S'> = (-0.000000,0.000000)
 <S|| Hso(L0) ||S'> = (0.000000,0.000000)
 <S|| Hso(L+) ||S'> = (-0.000000,-0.000000)

 Singlet part of <S|| Hso(L0) ||S'> = (-0.000000,-0.000000) (excluded from all matrix elements)
 L-/L+ Averaged reduced matrix elements:
 <S|| Hso(L-) ||S'> = (-0.000000,0.000000)
 <S|| Hso(L+) ||S'> = (-0.000000,-0.000000)

 SOCC = 0.000000


 Actual matrix elements:
       |Sz=-1.00>           |Sz=0.00>           |Sz=1.00>
 <Sz=-1.00|(0.000000,-0.000000)(-0.000000,-0.000000)(-0.000000,-0.000000)
 <Sz=0.00|(0.000000,-0.000000)(0.000000,0.000000)(-0.000000,-0.000000)
 <Sz=1.00|(-0.000000,0.000000)(0.000000,-0.000000)(0.000000,0.000000)
_______________________________

**************************************************

**************************************************
 State A: Root 0
 State B: Root 11


 Analysing Sz ans S^2 of the pair of states...
 Ket state:  Computed S^2 = 2.061068 will be treated as 2.000000 Sz = 1.000000
 Bra state:  Computed S^2 = 2.117242 will be treated as 2.000000 Sz = 1.000000
 Clebsh-Gordan coefficient: <1.000,1.000;1.000,0.000|1.000,1.000> = 0.707

_______________________________
 One-electron SO (cm-1)
 Reduced matrix elements:
 <S|| Hso(L-) ||S'> = (-0.000000,0.000000)
 <S|| Hso(L0) ||S'> = (0.000000,-0.000000)
 <S|| Hso(L+) ||S'> = (-0.000000,-0.000000)

 SOCC = 0.000000


 Actual matrix elements:
       |Sz=-1.00>           |Sz=0.00>           |Sz=1.00>
 <Sz=-1.00|(0.000000,0.000000)(-0.000000,-0.000000)(-0.000000,-0.000000)
 <Sz=0.00|(0.000000,-0.000000)(0.000000,0.000000)(-0.000000,-0.000000)
 <Sz=1.00|(-0.000000,0.000000)(0.000000,-0.000000)(0.000000,-0.000000)
_______________________________
 Mean-field SO (cm-1)
 Reduced matrix elements:
 <S|| Hso(L-) ||S'> = (0.000000,0.000000)
 <S|| Hso(L0) ||S'> = (0.000000,0.000000)
 <S|| Hso(L+) ||S'> = (0.000000,-0.000000)

 Singlet part of <S|| Hso(L0) ||S'> = (-0.000000,-0.000000) (excluded from all matrix elements)
 L-/L+ Averaged reduced matrix elements:
 <S|| Hso(L-) ||S'> = (0.000000,0.000000)
 <S|| Hso(L+) ||S'> = (0.000000,-0.000000)

 SOCC = 0.000000


 Actual matrix elements:
       |Sz=-1.00>           |Sz=0.00>           |Sz=1.00>
 <Sz=-1.00|(-0.000000,-0.000000)(0.000000,-0.000000)(0.000000,-0.000000)
 <Sz=0.00|(-0.000000,-0.000000)(-0.000000,0.000000)(0.000000,-0.000000)
 <Sz=1.00|(0.000000,0.000000)(-0.000000,-0.000000)(-0.000000,0.000000)
_______________________________

**************************************************

**************************************************
 State A: Root 0
 State B: Root 12


 Analysing Sz ans S^2 of the pair of states...
 Ket state:  Computed S^2 = 2.061068 will be treated as 2.000000 Sz = 1.000000
 Bra state:  Computed S^2 = 2.250795 will be treated as 2.000000 Sz = 1.000000
 Clebsh-Gordan coefficient: <1.000,1.000;1.000,0.000|1.000,1.000> = 0.707

_______________________________
 One-electron SO (cm-1)
 Reduced matrix elements:
 <S|| Hso(L-) ||S'> = (0.000000,0.000000)
 <S|| Hso(L0) ||S'> = (0.000000,-0.000000)
 <S|| Hso(L+) ||S'> = (0.000000,-0.000000)

 SOCC = 0.000000


 Actual matrix elements:
       |Sz=-1.00>           |Sz=0.00>           |Sz=1.00>
 <Sz=-1.00|(-0.000000,0.000000)(0.000000,-0.000000)(0.000000,-0.000000)
 <Sz=0.00|(-0.000000,-0.000000)(-0.000000,0.000000)(0.000000,-0.000000)
 <Sz=1.00|(0.000000,-0.000000)(-0.000000,-0.000000)(-0.000000,-0.000000)
_______________________________
 Mean-field SO (cm-1)
 Reduced matrix elements:
 <S|| Hso(L-) ||S'> = (0.000000,0.000000)
 <S|| Hso(L0) ||S'> = (0.000000,0.000000)
 <S|| Hso(L+) ||S'> = (0.000000,-0.000000)

 Singlet part of <S|| Hso(L0) ||S'> = (-0.000000,-0.000000) (excluded from all matrix elements)
 L-/L+ Averaged reduced matrix elements:
 <S|| Hso(L-) ||S'> = (0.000000,0.000000)
 <S|| Hso(L+) ||S'> = (0.000000,-0.000000)

 SOCC = 0.000000


 Actual matrix elements:
       |Sz=-1.00>           |Sz=0.00>           |Sz=1.00>
 <Sz=-1.00|(-0.000000,-0.000000)(0.000000,-0.000000)(0.000000,-0.000000)
 <Sz=0.00|(-0.000000,-0.000000)(-0.000000,0.000000)(0.000000,-0.000000)
 <Sz=1.00|(0.000000,0.000000)(-0.000000,-0.000000)(-0.000000,0.000000)
_______________________________

**************************************************

**************************************************
 State A: Root 0
 State B: Root 13


 Analysing Sz ans S^2 of the pair of states...
 Ket state:  Computed S^2 = 2.061068 will be treated as 2.000000 Sz = 1.000000
 Bra state:  Computed S^2 = 2.091733 will be treated as 2.000000 Sz = 1.000000
 Clebsh-Gordan coefficient: <1.000,1.000;1.000,0.000|1.000,1.000> = 0.707

_______________________________
 One-electron SO (cm-1)
 Reduced matrix elements:
 <S|| Hso(L-) ||S'> = (-0.000000,-0.000000)
 <S|| Hso(L0) ||S'> = (0.000000,0.000000)
 <S|| Hso(L+) ||S'> = (-0.000000,0.000000)

 SOCC = 0.000000


 Actual matrix elements:
       |Sz=-1.00>           |Sz=0.00>           |Sz=1.00>
 <Sz=-1.00|(0.000000,-0.000000)(-0.000000,0.000000)(-0.000000,0.000000)
 <Sz=0.00|(0.000000,0.000000)(0.000000,-0.000000)(-0.000000,0.000000)
 <Sz=1.00|(-0.000000,0.000000)(0.000000,0.000000)(0.000000,0.000000)
_______________________________
 Mean-field SO (cm-1)
 Reduced matrix elements:
 <S|| Hso(L-) ||S'> = (-0.000000,-0.000000)
 <S|| Hso(L0) ||S'> = (0.000000,0.000000)
 <S|| Hso(L+) ||S'> = (-0.000000,0.000000)

 Singlet part of <S|| Hso(L0) ||S'> = (-0.000000,-0.000000) (excluded from all matrix elements)
 L-/L+ Averaged reduced matrix elements:
 <S|| Hso(L-) ||S'> = (-0.000000,-0.000000)
 <S|| Hso(L+) ||S'> = (-0.000000,0.000000)

 SOCC = 0.000000


 Actual matrix elements:
       |Sz=-1.00>           |Sz=0.00>           |Sz=1.00>
 <Sz=-1.00|(0.000000,-0.000000)(-0.000000,0.000000)(-0.000000,0.000000)
 <Sz=0.00|(0.000000,0.000000)(0.000000,-0.000000)(-0.000000,0.000000)
 <Sz=1.00|(-0.000000,0.000000)(0.000000,0.000000)(0.000000,0.000000)
_______________________________

**************************************************

**************************************************
 State A: Root 0
 State B: Root 14


 Analysing Sz ans S^2 of the pair of states...
 Ket state:  Computed S^2 = 2.061068 will be treated as 2.000000 Sz = 1.000000
 Bra state:  Computed S^2 = 2.108863 will be treated as 2.000000 Sz = 1.000000
 Clebsh-Gordan coefficient: <1.000,1.000;1.000,0.000|1.000,1.000> = 0.707

_______________________________
 One-electron SO (cm-1)
 Reduced matrix elements:
 <S|| Hso(L-) ||S'> = (-4.789878,0.000000)
 <S|| Hso(L0) ||S'> = (0.000000,0.000000)
 <S|| Hso(L+) ||S'> = (-4.789878,-0.000000)

 SOCC = 6.773910


 Actual matrix elements:
       |Sz=-1.00>           |Sz=0.00>           |Sz=1.00>
 <Sz=-1.00|(0.000000,-0.000000)(-3.386955,-0.000000)(-0.000000,-0.000000)
 <Sz=0.00|(3.386955,-0.000000)(0.000000,0.000000)(-3.386955,-0.000000)
 <Sz=1.00|(-0.000000,0.000000)(3.386955,-0.000000)(0.000000,0.000000)
_______________________________
 Mean-field SO (cm-1)
 Reduced matrix elements:
 <S|| Hso(L-) ||S'> = (-2.558014,0.000000)
 <S|| Hso(L0) ||S'> = (0.000000,0.000000)
 <S|| Hso(L+) ||S'> = (-2.544930,-0.000000)

 Singlet part of <S|| Hso(L0) ||S'> = (-0.000000,-0.000000) (excluded from all matrix elements)
 L-/L+ Averaged reduced matrix elements:
 <S|| Hso(L-) ||S'> = (-2.551472,0.000000)
 <S|| Hso(L+) ||S'> = (-2.551472,-0.000000)

 SOCC = 3.608326


 Actual matrix elements:
       |Sz=-1.00>           |Sz=0.00>           |Sz=1.00>
 <Sz=-1.00|(0.000000,-0.000000)(-1.804163,-0.000000)(-0.000000,-0.000000)
 <Sz=0.00|(1.804163,-0.000000)(0.000000,0.000000)(-1.804163,-0.000000)
 <Sz=1.00|(-0.000000,0.000000)(1.804163,-0.000000)(0.000000,0.000000)
_______________________________

**************************************************

**************************************************
 State A: Root 0
 State B: Root 15


 Analysing Sz ans S^2 of the pair of states...
 Ket state:  Computed S^2 = 2.061068 will be treated as 2.000000 Sz = 1.000000
WARNING! The deviation of S^2 from the correct value is large, indicating a significant spin contamination. The results may be unreliable
 Bra state:  Computed S^2 = 3.523367 will be treated as 2.000000 Sz = 1.000000
 Clebsh-Gordan coefficient: <1.000,1.000;1.000,0.000|1.000,1.000> = 0.707

_______________________________
 One-electron SO (cm-1)
 Reduced matrix elements:
 <S|| Hso(L-) ||S'> = (-0.000000,-0.000000)
 <S|| Hso(L0) ||S'> = (0.000000,0.000000)
 <S|| Hso(L+) ||S'> = (-0.000000,0.000000)

 SOCC = 0.000000


 Actual matrix elements:
       |Sz=-1.00>           |Sz=0.00>           |Sz=1.00>
 <Sz=-1.00|(0.000000,-0.000000)(-0.000000,0.000000)(-0.000000,0.000000)
 <Sz=0.00|(0.000000,0.000000)(0.000000,-0.000000)(-0.000000,0.000000)
 <Sz=1.00|(-0.000000,0.000000)(0.000000,0.000000)(0.000000,0.000000)
_______________________________
 Mean-field SO (cm-1)
 Reduced matrix elements:
 <S|| Hso(L-) ||S'> = (-0.000000,-0.000000)
 <S|| Hso(L0) ||S'> = (0.000000,0.000000)
 <S|| Hso(L+) ||S'> = (-0.000000,0.000000)

 Singlet part of <S|| Hso(L0) ||S'> = (0.000000,0.000000) (excluded from all matrix elements)
 L-/L+ Averaged reduced matrix elements:
 <S|| Hso(L-) ||S'> = (-0.000000,-0.000000)
 <S|| Hso(L+) ||S'> = (-0.000000,0.000000)

 SOCC = 0.000000


 Actual matrix elements:
       |Sz=-1.00>           |Sz=0.00>           |Sz=1.00>
 <Sz=-1.00|(0.000000,-0.000000)(-0.000000,0.000000)(-0.000000,0.000000)
 <Sz=0.00|(0.000000,0.000000)(0.000000,-0.000000)(-0.000000,0.000000)
 <Sz=1.00|(-0.000000,0.000000)(0.000000,0.000000)(0.000000,0.000000)
_______________________________

**************************************************

**************************************************
 State A: Root 0
 State B: Root 16


 Analysing Sz ans S^2 of the pair of states...
 Ket state:  Computed S^2 = 2.061068 will be treated as 2.000000 Sz = 1.000000
 Bra state:  Computed S^2 = 2.104341 will be treated as 2.000000 Sz = 1.000000
 Clebsh-Gordan coefficient: <1.000,1.000;1.000,0.000|1.000,1.000> = 0.707

_______________________________
 One-electron SO (cm-1)
 Reduced matrix elements:
 <S|| Hso(L-) ||S'> = (0.000000,7.435174)
 <S|| Hso(L0) ||S'> = (0.000000,0.000000)
 <S|| Hso(L+) ||S'> = (0.000000,-7.435174)

 SOCC = 10.514924


 Actual matrix elements:
       |Sz=-1.00>           |Sz=0.00>           |Sz=1.00>
 <Sz=-1.00|(-0.000000,-0.000000)(0.000000,-5.257462)(0.000000,-0.000000)
 <Sz=0.00|(-0.000000,-5.257462)(-0.000000,0.000000)(0.000000,-5.257462)
 <Sz=1.00|(0.000000,0.000000)(-0.000000,-5.257462)(-0.000000,0.000000)
_______________________________
 Mean-field SO (cm-1)
 Reduced matrix elements:
 <S|| Hso(L-) ||S'> = (0.000000,4.079804)
 <S|| Hso(L0) ||S'> = (0.000000,0.000000)
 <S|| Hso(L+) ||S'> = (0.000000,-4.030873)

 Singlet part of <S|| Hso(L0) ||S'> = (-0.000000,-0.000000) (excluded from all matrix elements)
 L-/L+ Averaged reduced matrix elements:
 <S|| Hso(L-) ||S'> = (0.000000,4.055339)
 <S|| Hso(L+) ||S'> = (0.000000,-4.055339)

 SOCC = 5.735115


 Actual matrix elements:
       |Sz=-1.00>           |Sz=0.00>           |Sz=1.00>
 <Sz=-1.00|(-0.000000,-0.000000)(0.000000,-2.867557)(0.000000,-0.000000)
 <Sz=0.00|(-0.000000,-2.867557)(-0.000000,0.000000)(0.000000,-2.867557)
 <Sz=1.00|(0.000000,0.000000)(-0.000000,-2.867557)(-0.000000,0.000000)
_______________________________

**************************************************

**************************************************
 State A: Root 0
 State B: Root 17


 Analysing Sz ans S^2 of the pair of states...
 Ket state:  Computed S^2 = 2.061068 will be treated as 2.000000 Sz = 1.000000
WARNING! The deviation of S^2 from the correct value is large, indicating a significant spin contamination. The results may be unreliable
 Bra state:  Computed S^2 = 3.534098 will be treated as 2.000000 Sz = 1.000000
 Clebsh-Gordan coefficient: <1.000,1.000;1.000,0.000|1.000,1.000> = 0.707

_______________________________
 One-electron SO (cm-1)
 Reduced matrix elements:
 <S|| Hso(L-) ||S'> = (0.000000,-0.000000)
 <S|| Hso(L0) ||S'> = (0.000000,-0.000000)
 <S|| Hso(L+) ||S'> = (0.000000,0.000000)

 SOCC = 0.000000


 Actual matrix elements:
       |Sz=-1.00>           |Sz=0.00>           |Sz=1.00>
 <Sz=-1.00|(-0.000000,0.000000)(0.000000,0.000000)(0.000000,0.000000)
 <Sz=0.00|(-0.000000,0.000000)(-0.000000,-0.000000)(0.000000,0.000000)
 <Sz=1.00|(0.000000,-0.000000)(-0.000000,0.000000)(-0.000000,-0.000000)
_______________________________
 Mean-field SO (cm-1)
 Reduced matrix elements:
 <S|| Hso(L-) ||S'> = (0.000000,-0.000000)
 <S|| Hso(L0) ||S'> = (0.000000,-0.000000)
 <S|| Hso(L+) ||S'> = (0.000000,0.000000)

 Singlet part of <S|| Hso(L0) ||S'> = (0.000000,0.000000) (excluded from all matrix elements)
 L-/L+ Averaged reduced matrix elements:
 <S|| Hso(L-) ||S'> = (0.000000,-0.000000)
 <S|| Hso(L+) ||S'> = (0.000000,0.000000)

 SOCC = 0.000000


 Actual matrix elements:
       |Sz=-1.00>           |Sz=0.00>           |Sz=1.00>
 <Sz=-1.00|(-0.000000,0.000000)(0.000000,0.000000)(0.000000,0.000000)
 <Sz=0.00|(-0.000000,0.000000)(-0.000000,-0.000000)(0.000000,0.000000)
 <Sz=1.00|(0.000000,-0.000000)(-0.000000,0.000000)(-0.000000,-0.000000)
_______________________________

**************************************************

**************************************************
 State A: Root 0
 State B: Root 18


 Analysing Sz ans S^2 of the pair of states...
 Ket state:  Computed S^2 = 2.061068 will be treated as 2.000000 Sz = 1.000000
WARNING! The deviation of S^2 from the correct value is large, indicating a significant spin contamination. The results may be unreliable
 Bra state:  Computed S^2 = 2.422494 will be treated as 2.000000 Sz = 1.000000
 Clebsh-Gordan coefficient: <1.000,1.000;1.000,0.000|1.000,1.000> = 0.707

_______________________________
 One-electron SO (cm-1)
 Reduced matrix elements:
 <S|| Hso(L-) ||S'> = (-0.000000,-0.000000)
 <S|| Hso(L0) ||S'> = (0.000000,0.057571)
 <S|| Hso(L+) ||S'> = (-0.000000,0.000000)

 SOCC = 0.057571


 Actual matrix elements:
       |Sz=-1.00>           |Sz=0.00>           |Sz=1.00>
 <Sz=-1.00|(0.000000,-0.040709)(-0.000000,0.000000)(-0.000000,0.000000)
 <Sz=0.00|(0.000000,0.000000)(0.000000,0.000000)(-0.000000,0.000000)
 <Sz=1.00|(-0.000000,0.000000)(0.000000,0.000000)(0.000000,0.040709)
_______________________________
 Mean-field SO (cm-1)
 Reduced matrix elements:
 <S|| Hso(L-) ||S'> = (-0.000000,-0.000000)
 <S|| Hso(L0) ||S'> = (0.000000,0.080646)
 <S|| Hso(L+) ||S'> = (-0.000000,0.000000)

 Singlet part of <S|| Hso(L0) ||S'> = (-0.000000,-0.015855) (excluded from all matrix elements)
 L-/L+ Averaged reduced matrix elements:
 <S|| Hso(L-) ||S'> = (-0.000000,-0.000000)
 <S|| Hso(L+) ||S'> = (-0.000000,0.000000)

 SOCC = 0.080646


 Actual matrix elements:
       |Sz=-1.00>           |Sz=0.00>           |Sz=1.00>
 <Sz=-1.00|(0.000000,-0.057025)(-0.000000,0.000000)(-0.000000,0.000000)
 <Sz=0.00|(0.000000,0.000000)(0.000000,0.000000)(-0.000000,0.000000)
 <Sz=1.00|(-0.000000,0.000000)(0.000000,0.000000)(0.000000,0.057025)
_______________________________

**************************************************

**************************************************
 State A: Root 0
 State B: Root 19


 Analysing Sz ans S^2 of the pair of states...
 Ket state:  Computed S^2 = 2.061068 will be treated as 2.000000 Sz = 1.000000
 Bra state:  Computed S^2 = 2.174831 will be treated as 2.000000 Sz = 1.000000
 Clebsh-Gordan coefficient: <1.000,1.000;1.000,0.000|1.000,1.000> = 0.707

_______________________________
 One-electron SO (cm-1)
 Reduced matrix elements:
 <S|| Hso(L-) ||S'> = (-0.000000,0.852072)
 <S|| Hso(L0) ||S'> = (0.000000,0.000000)
 <S|| Hso(L+) ||S'> = (-0.000000,-0.852072)

 SOCC = 1.205012


 Actual matrix elements:
       |Sz=-1.00>           |Sz=0.00>           |Sz=1.00>
 <Sz=-1.00|(0.000000,-0.000000)(-0.000000,-0.602506)(-0.000000,-0.000000)
 <Sz=0.00|(0.000000,-0.602506)(0.000000,0.000000)(-0.000000,-0.602506)
 <Sz=1.00|(-0.000000,0.000000)(0.000000,-0.602506)(0.000000,0.000000)
_______________________________
 Mean-field SO (cm-1)
 Reduced matrix elements:
 <S|| Hso(L-) ||S'> = (-0.000000,0.730422)
 <S|| Hso(L0) ||S'> = (0.000000,-0.000000)
 <S|| Hso(L+) ||S'> = (-0.000000,-0.675161)

 Singlet part of <S|| Hso(L0) ||S'> = (0.000000,0.000000) (excluded from all matrix elements)
 L-/L+ Averaged reduced matrix elements:
 <S|| Hso(L-) ||S'> = (-0.000000,0.702792)
 <S|| Hso(L+) ||S'> = (-0.000000,-0.702792)

 SOCC = 0.993898


 Actual matrix elements:
       |Sz=-1.00>           |Sz=0.00>           |Sz=1.00>
 <Sz=-1.00|(0.000000,-0.000000)(-0.000000,-0.496949)(-0.000000,-0.000000)
 <Sz=0.00|(0.000000,-0.496949)(0.000000,0.000000)(-0.000000,-0.496949)
 <Sz=1.00|(-0.000000,0.000000)(0.000000,-0.496949)(0.000000,0.000000)
_______________________________

**************************************************

**************************************************
 State A: Root 0
 State B: Root 20


 Analysing Sz ans S^2 of the pair of states...
 Ket state:  Computed S^2 = 2.061068 will be treated as 2.000000 Sz = 1.000000
 Bra state:  Computed S^2 = 2.109847 will be treated as 2.000000 Sz = 1.000000
 Clebsh-Gordan coefficient: <1.000,1.000;1.000,0.000|1.000,1.000> = 0.707

_______________________________
 One-electron SO (cm-1)
 Reduced matrix elements:
 <S|| Hso(L-) ||S'> = (-0.000000,-0.000000)
 <S|| Hso(L0) ||S'> = (0.000000,-0.000000)
 <S|| Hso(L+) ||S'> = (-0.000000,0.000000)

 SOCC = 0.000000


 Actual matrix elements:
       |Sz=-1.00>           |Sz=0.00>           |Sz=1.00>
 <Sz=-1.00|(0.000000,0.000000)(-0.000000,0.000000)(-0.000000,0.000000)
 <Sz=0.00|(0.000000,0.000000)(0.000000,-0.000000)(-0.000000,0.000000)
 <Sz=1.00|(-0.000000,-0.000000)(0.000000,0.000000)(0.000000,-0.000000)
_______________________________
 Mean-field SO (cm-1)
 Reduced matrix elements:
 <S|| Hso(L-) ||S'> = (-0.000000,-0.000000)
 <S|| Hso(L0) ||S'> = (0.000000,-0.000000)
 <S|| Hso(L+) ||S'> = (-0.000000,0.000000)

 Singlet part of <S|| Hso(L0) ||S'> = (0.000000,0.000000) (excluded from all matrix elements)
 L-/L+ Averaged reduced matrix elements:
 <S|| Hso(L-) ||S'> = (-0.000000,-0.000000)
 <S|| Hso(L+) ||S'> = (-0.000000,0.000000)

 SOCC = 0.000000


 Actual matrix elements:
       |Sz=-1.00>           |Sz=0.00>           |Sz=1.00>
 <Sz=-1.00|(0.000000,0.000000)(-0.000000,0.000000)(-0.000000,0.000000)
 <Sz=0.00|(0.000000,0.000000)(0.000000,-0.000000)(-0.000000,0.000000)
 <Sz=1.00|(-0.000000,-0.000000)(0.000000,0.000000)(0.000000,-0.000000)
_______________________________

**************************************************

**************************************************
 State A: Root 0
 State B: Root 21


 Analysing Sz ans S^2 of the pair of states...
 Ket state:  Computed S^2 = 2.061068 will be treated as 2.000000 Sz = 1.000000
 Bra state:  Computed S^2 = 2.090151 will be treated as 2.000000 Sz = 1.000000
 Clebsh-Gordan coefficient: <1.000,1.000;1.000,0.000|1.000,1.000> = 0.707

_______________________________
 One-electron SO (cm-1)
 Reduced matrix elements:
 <S|| Hso(L-) ||S'> = (0.794200,-0.000000)
 <S|| Hso(L0) ||S'> = (0.000000,0.000000)
 <S|| Hso(L+) ||S'> = (0.794200,0.000000)

 SOCC = 1.123169


 Actual matrix elements:
       |Sz=-1.00>           |Sz=0.00>           |Sz=1.00>
 <Sz=-1.00|(-0.000000,-0.000000)(0.561584,0.000000)(0.000000,0.000000)
 <Sz=0.00|(-0.561584,0.000000)(-0.000000,-0.000000)(0.561584,0.000000)
 <Sz=1.00|(0.000000,-0.000000)(-0.561584,0.000000)(-0.000000,0.000000)
_______________________________
 Mean-field SO (cm-1)
 Reduced matrix elements:
 <S|| Hso(L-) ||S'> = (0.300669,-0.000000)
 <S|| Hso(L0) ||S'> = (0.000000,0.000000)
 <S|| Hso(L+) ||S'> = (0.294844,0.000000)

 Singlet part of <S|| Hso(L0) ||S'> = (0.000000,0.000000) (excluded from all matrix elements)
 L-/L+ Averaged reduced matrix elements:
 <S|| Hso(L-) ||S'> = (0.297756,-0.000000)
 <S|| Hso(L+) ||S'> = (0.297756,0.000000)

 SOCC = 0.421091


 Actual matrix elements:
       |Sz=-1.00>           |Sz=0.00>           |Sz=1.00>
 <Sz=-1.00|(-0.000000,-0.000000)(0.210546,0.000000)(0.000000,0.000000)
 <Sz=0.00|(-0.210546,0.000000)(-0.000000,-0.000000)(0.210546,0.000000)
 <Sz=1.00|(0.000000,-0.000000)(-0.210546,0.000000)(-0.000000,0.000000)
_______________________________

**************************************************

**************************************************
 State A: Root 0
 State B: Root 22


 Analysing Sz ans S^2 of the pair of states...
 Ket state:  Computed S^2 = 2.061068 will be treated as 2.000000 Sz = 1.000000
 Bra state:  Computed S^2 = 2.110772 will be treated as 2.000000 Sz = 1.000000
 Clebsh-Gordan coefficient: <1.000,1.000;1.000,0.000|1.000,1.000> = 0.707

_______________________________
 One-electron SO (cm-1)
 Reduced matrix elements:
 <S|| Hso(L-) ||S'> = (-0.000000,-0.000000)
 <S|| Hso(L0) ||S'> = (0.000000,0.000000)
 <S|| Hso(L+) ||S'> = (-0.000000,0.000000)

 SOCC = 0.000000


 Actual matrix elements:
       |Sz=-1.00>           |Sz=0.00>           |Sz=1.00>
 <Sz=-1.00|(0.000000,-0.000000)(-0.000000,0.000000)(-0.000000,0.000000)
 <Sz=0.00|(0.000000,0.000000)(0.000000,-0.000000)(-0.000000,0.000000)
 <Sz=1.00|(-0.000000,-0.000000)(0.000000,0.000000)(0.000000,0.000000)
_______________________________
 Mean-field SO (cm-1)
 Reduced matrix elements:
 <S|| Hso(L-) ||S'> = (-0.000000,-0.000000)
 <S|| Hso(L0) ||S'> = (0.000000,-0.000000)
 <S|| Hso(L+) ||S'> = (-0.000000,0.000000)

 Singlet part of <S|| Hso(L0) ||S'> = (0.000000,0.000000) (excluded from all matrix elements)
 L-/L+ Averaged reduced matrix elements:
 <S|| Hso(L-) ||S'> = (-0.000000,-0.000000)
 <S|| Hso(L+) ||S'> = (-0.000000,0.000000)

 SOCC = 0.000000


 Actual matrix elements:
       |Sz=-1.00>           |Sz=0.00>           |Sz=1.00>
 <Sz=-1.00|(0.000000,0.000000)(-0.000000,0.000000)(-0.000000,0.000000)
 <Sz=0.00|(0.000000,0.000000)(0.000000,-0.000000)(-0.000000,0.000000)
 <Sz=1.00|(-0.000000,-0.000000)(0.000000,0.000000)(0.000000,-0.000000)
_______________________________

**************************************************

**************************************************
 State A: Root 0
 State B: Root 23


 Analysing Sz ans S^2 of the pair of states...
 Ket state:  Computed S^2 = 2.061068 will be treated as 2.000000 Sz = 1.000000
 Bra state:  Computed S^2 = 2.229327 will be treated as 2.000000 Sz = 1.000000
 Clebsh-Gordan coefficient: <1.000,1.000;1.000,0.000|1.000,1.000> = 0.707

_______________________________
 One-electron SO (cm-1)
 Reduced matrix elements:
 <S|| Hso(L-) ||S'> = (-0.000000,0.000000)
 <S|| Hso(L0) ||S'> = (0.000000,-0.978027)
 <S|| Hso(L+) ||S'> = (-0.000000,-0.000000)

 SOCC = 0.978027


 Actual matrix elements:
       |Sz=-1.00>           |Sz=0.00>           |Sz=1.00>
 <Sz=-1.00|(0.000000,0.691570)(-0.000000,-0.000000)(-0.000000,-0.000000)
 <Sz=0.00|(0.000000,-0.000000)(0.000000,-0.000000)(-0.000000,-0.000000)
 <Sz=1.00|(-0.000000,-0.000000)(0.000000,-0.000000)(0.000000,-0.691570)
_______________________________
 Mean-field SO (cm-1)
 Reduced matrix elements:
 <S|| Hso(L-) ||S'> = (-0.000000,0.000000)
 <S|| Hso(L0) ||S'> = (0.000000,0.217122)
 <S|| Hso(L+) ||S'> = (-0.000000,-0.000000)

 Singlet part of <S|| Hso(L0) ||S'> = (-0.000000,-0.029891) (excluded from all matrix elements)
 L-/L+ Averaged reduced matrix elements:
 <S|| Hso(L-) ||S'> = (-0.000000,0.000000)
 <S|| Hso(L+) ||S'> = (-0.000000,-0.000000)

 SOCC = 0.217122


 Actual matrix elements:
       |Sz=-1.00>           |Sz=0.00>           |Sz=1.00>
 <Sz=-1.00|(0.000000,-0.153529)(-0.000000,-0.000000)(-0.000000,0.000000)
 <Sz=0.00|(0.000000,-0.000000)(0.000000,0.000000)(-0.000000,-0.000000)
 <Sz=1.00|(-0.000000,0.000000)(0.000000,-0.000000)(0.000000,0.153529)
_______________________________

**************************************************

**************************************************
 State A: Root 0
 State B: Root 24


 Analysing Sz ans S^2 of the pair of states...
 Ket state:  Computed S^2 = 2.061068 will be treated as 2.000000 Sz = 1.000000
 Bra state:  Computed S^2 = 2.232191 will be treated as 2.000000 Sz = 1.000000
 Clebsh-Gordan coefficient: <1.000,1.000;1.000,0.000|1.000,1.000> = 0.707

_______________________________
 One-electron SO (cm-1)
 Reduced matrix elements:
 <S|| Hso(L-) ||S'> = (-3.302350,0.000000)
 <S|| Hso(L0) ||S'> = (0.000000,0.000000)
 <S|| Hso(L+) ||S'> = (-3.302350,-0.000000)

 SOCC = 4.670229


 Actual matrix elements:
       |Sz=-1.00>           |Sz=0.00>           |Sz=1.00>
 <Sz=-1.00|(0.000000,-0.000000)(-2.335114,-0.000000)(-0.000000,-0.000000)
 <Sz=0.00|(2.335114,-0.000000)(0.000000,0.000000)(-2.335114,-0.000000)
 <Sz=1.00|(-0.000000,0.000000)(2.335114,-0.000000)(0.000000,0.000000)
_______________________________
 Mean-field SO (cm-1)
 Reduced matrix elements:
 <S|| Hso(L-) ||S'> = (-1.574687,0.000000)
 <S|| Hso(L0) ||S'> = (0.000000,-0.000000)
 <S|| Hso(L+) ||S'> = (-1.538636,-0.000000)

 Singlet part of <S|| Hso(L0) ||S'> = (0.000000,0.000000) (excluded from all matrix elements)
 L-/L+ Averaged reduced matrix elements:
 <S|| Hso(L-) ||S'> = (-1.556662,0.000000)
 <S|| Hso(L+) ||S'> = (-1.556662,-0.000000)

 SOCC = 2.201452


 Actual matrix elements:
       |Sz=-1.00>           |Sz=0.00>           |Sz=1.00>
 <Sz=-1.00|(0.000000,0.000000)(-1.100726,-0.000000)(-0.000000,-0.000000)
 <Sz=0.00|(1.100726,-0.000000)(0.000000,0.000000)(-1.100726,-0.000000)
 <Sz=1.00|(-0.000000,0.000000)(1.100726,-0.000000)(0.000000,-0.000000)
_______________________________

**************************************************

**************************************************
 State A: Root 0
 State B: Root 25


 Analysing Sz ans S^2 of the pair of states...
 Ket state:  Computed S^2 = 2.061068 will be treated as 2.000000 Sz = 1.000000
WARNING! The deviation of S^2 from the correct value is large, indicating a significant spin contamination. The results may be unreliable
 Bra state:  Computed S^2 = 3.537350 will be treated as 2.000000 Sz = 1.000000
 Clebsh-Gordan coefficient: <1.000,1.000;1.000,0.000|1.000,1.000> = 0.707

_______________________________
 One-electron SO (cm-1)
 Reduced matrix elements:
 <S|| Hso(L-) ||S'> = (-0.000000,-0.000000)
 <S|| Hso(L0) ||S'> = (0.000000,0.000000)
 <S|| Hso(L+) ||S'> = (-0.000000,0.000000)

 SOCC = 0.000000


 Actual matrix elements:
       |Sz=-1.00>           |Sz=0.00>           |Sz=1.00>
 <Sz=-1.00|(0.000000,-0.000000)(-0.000000,0.000000)(-0.000000,0.000000)
 <Sz=0.00|(0.000000,0.000000)(0.000000,0.000000)(-0.000000,0.000000)
 <Sz=1.00|(-0.000000,0.000000)(0.000000,0.000000)(0.000000,0.000000)
_______________________________
 Mean-field SO (cm-1)
 Reduced matrix elements:
 <S|| Hso(L-) ||S'> = (-0.000000,-0.000000)
 <S|| Hso(L0) ||S'> = (0.000000,0.000000)
 <S|| Hso(L+) ||S'> = (-0.000000,0.000000)

 Singlet part of <S|| Hso(L0) ||S'> = (0.000000,0.000000) (excluded from all matrix elements)
 L-/L+ Averaged reduced matrix elements:
 <S|| Hso(L-) ||S'> = (-0.000000,-0.000000)
 <S|| Hso(L+) ||S'> = (-0.000000,0.000000)

 SOCC = 0.000000


 Actual matrix elements:
       |Sz=-1.00>           |Sz=0.00>           |Sz=1.00>
 <Sz=-1.00|(0.000000,-0.000000)(-0.000000,0.000000)(-0.000000,0.000000)
 <Sz=0.00|(0.000000,0.000000)(0.000000,0.000000)(-0.000000,0.000000)
 <Sz=1.00|(-0.000000,0.000000)(0.000000,0.000000)(0.000000,0.000000)
_______________________________

**************************************************

**************************************************
 State A: Root 0
 State B: Root 26


 Analysing Sz ans S^2 of the pair of states...
 Ket state:  Computed S^2 = 2.061068 will be treated as 2.000000 Sz = 1.000000
 Bra state:  Computed S^2 = 2.076407 will be treated as 2.000000 Sz = 1.000000
 Clebsh-Gordan coefficient: <1.000,1.000;1.000,0.000|1.000,1.000> = 0.707

_______________________________
 One-electron SO (cm-1)
 Reduced matrix elements:
 <S|| Hso(L-) ||S'> = (-0.000000,0.000000)
 <S|| Hso(L0) ||S'> = (0.000000,0.000000)
 <S|| Hso(L+) ||S'> = (-0.000000,-0.000000)

 SOCC = 0.000000


 Actual matrix elements:
       |Sz=-1.00>           |Sz=0.00>           |Sz=1.00>
 <Sz=-1.00|(0.000000,-0.000000)(-0.000000,-0.000000)(-0.000000,-0.000000)
 <Sz=0.00|(0.000000,-0.000000)(0.000000,0.000000)(-0.000000,-0.000000)
 <Sz=1.00|(-0.000000,0.000000)(0.000000,-0.000000)(0.000000,0.000000)
_______________________________
 Mean-field SO (cm-1)
 Reduced matrix elements:
 <S|| Hso(L-) ||S'> = (-0.000000,0.000000)
 <S|| Hso(L0) ||S'> = (0.000000,-0.000000)
 <S|| Hso(L+) ||S'> = (-0.000000,-0.000000)

 Singlet part of <S|| Hso(L0) ||S'> = (-0.000000,-0.000000) (excluded from all matrix elements)
 L-/L+ Averaged reduced matrix elements:
 <S|| Hso(L-) ||S'> = (-0.000000,0.000000)
 <S|| Hso(L+) ||S'> = (-0.000000,-0.000000)

 SOCC = 0.000000


 Actual matrix elements:
       |Sz=-1.00>           |Sz=0.00>           |Sz=1.00>
 <Sz=-1.00|(0.000000,0.000000)(-0.000000,-0.000000)(-0.000000,-0.000000)
 <Sz=0.00|(0.000000,-0.000000)(0.000000,0.000000)(-0.000000,-0.000000)
 <Sz=1.00|(-0.000000,-0.000000)(0.000000,-0.000000)(0.000000,-0.000000)
_______________________________

**************************************************

**************************************************
 State A: Root 0
 State B: Root 27


 Analysing Sz ans S^2 of the pair of states...
 Ket state:  Computed S^2 = 2.061068 will be treated as 2.000000 Sz = 1.000000
 Bra state:  Computed S^2 = 2.384609 will be treated as 2.000000 Sz = 1.000000
 Clebsh-Gordan coefficient: <1.000,1.000;1.000,0.000|1.000,1.000> = 0.707

[...]


 Analysing Sz ans S^2 of the pair of states...
WARNING! The deviation of S^2 from the correct value is large, indicating a significant spin contamination. The results may be unreliable
 Ket state:  Computed S^2 = 2.669415 will be treated as 2.000000 Sz = 1.000000
 Bra state:  Computed S^2 = 2.152960 will be treated as 2.000000 Sz = 1.000000
 Clebsh-Gordan coefficient: <1.000,1.000;1.000,0.000|1.000,1.000> = 0.707

_______________________________
 One-electron SO (cm-1)
 Reduced matrix elements:
 <S|| Hso(L-) ||S'> = (-0.000000,0.000000)
 <S|| Hso(L0) ||S'> = (0.000000,-0.000000)
 <S|| Hso(L+) ||S'> = (-0.000000,-0.000000)

 SOCC = 0.000000


 Actual matrix elements:
       |Sz=-1.00>           |Sz=0.00>           |Sz=1.00>
 <Sz=-1.00|(0.000000,0.000000)(-0.000000,-0.000000)(-0.000000,-0.000000)
 <Sz=0.00|(0.000000,-0.000000)(0.000000,-0.000000)(-0.000000,-0.000000)
 <Sz=1.00|(-0.000000,-0.000000)(0.000000,-0.000000)(0.000000,-0.000000)
_______________________________
 Mean-field SO (cm-1)
 Reduced matrix elements:
 <S|| Hso(L-) ||S'> = (-0.000000,0.000000)
 <S|| Hso(L0) ||S'> = (0.000000,-0.000000)
 <S|| Hso(L+) ||S'> = (-0.000000,-0.000000)

 Singlet part of <S|| Hso(L0) ||S'> = (0.000000,0.000000) (excluded from all matrix elements)
 L-/L+ Averaged reduced matrix elements:
 <S|| Hso(L-) ||S'> = (-0.000000,0.000000)
 <S|| Hso(L+) ||S'> = (-0.000000,-0.000000)

 SOCC = 0.000000


 Actual matrix elements:
       |Sz=-1.00>           |Sz=0.00>           |Sz=1.00>
 <Sz=-1.00|(0.000000,0.000000)(-0.000000,-0.000000)(-0.000000,-0.000000)
 <Sz=0.00|(0.000000,-0.000000)(0.000000,-0.000000)(-0.000000,-0.000000)
 <Sz=1.00|(-0.000000,-0.000000)(0.000000,-0.000000)(0.000000,-0.000000)
_______________________________

**************************************************

**************************************************
 State A: Root 49
 State B: Root 50


 Analysing Sz ans S^2 of the pair of states...
 Ket state:  Computed S^2 = 2.119010 will be treated as 2.000000 Sz = 1.000000
 Bra state:  Computed S^2 = 2.152960 will be treated as 2.000000 Sz = 1.000000
 Clebsh-Gordan coefficient: <1.000,1.000;1.000,0.000|1.000,1.000> = 0.707

_______________________________
 One-electron SO (cm-1)
 Reduced matrix elements:
 <S|| Hso(L-) ||S'> = (0.000000,-0.000000)
 <S|| Hso(L0) ||S'> = (0.000000,-0.000000)
 <S|| Hso(L+) ||S'> = (0.000000,0.000000)

 SOCC = 0.000000


 Actual matrix elements:
       |Sz=-1.00>           |Sz=0.00>           |Sz=1.00>
 <Sz=-1.00|(-0.000000,0.000000)(0.000000,0.000000)(0.000000,-0.000000)
 <Sz=0.00|(-0.000000,0.000000)(-0.000000,-0.000000)(0.000000,0.000000)
 <Sz=1.00|(0.000000,-0.000000)(-0.000000,0.000000)(-0.000000,-0.000000)
_______________________________
 Mean-field SO (cm-1)
 Reduced matrix elements:
 <S|| Hso(L-) ||S'> = (0.000000,-0.000000)
 <S|| Hso(L0) ||S'> = (0.000000,0.000000)
 <S|| Hso(L+) ||S'> = (0.000000,0.000000)

 Singlet part of <S|| Hso(L0) ||S'> = (0.000000,0.000000) (excluded from all matrix elements)
 L-/L+ Averaged reduced matrix elements:
 <S|| Hso(L-) ||S'> = (0.000000,-0.000000)
 <S|| Hso(L+) ||S'> = (0.000000,0.000000)

 SOCC = 0.000000


 Actual matrix elements:
       |Sz=-1.00>           |Sz=0.00>           |Sz=1.00>
 <Sz=-1.00|(-0.000000,-0.000000)(0.000000,0.000000)(0.000000,0.000000)
 <Sz=0.00|(-0.000000,0.000000)(-0.000000,0.000000)(0.000000,0.000000)
 <Sz=1.00|(0.000000,0.000000)(-0.000000,0.000000)(-0.000000,0.000000)
_______________________________

**************************************************


            *********SPIN-ORBIT COUPLING JOB ENDS HERE*********



 
 --------------------------------------------------------------
             Orbital Energies (a.u.) and Symmetries
 --------------------------------------------------------------
 
 Alpha MOs, Unrestricted
 -- Occupied --                  
-10.592 -10.592 -10.591 -10.591 -10.591 -10.591 -10.586 -10.586
  1 Ag    1 B2u   1 B1g   1 B3u   2 Ag    2 B2u   2 B3u   3 Ag                 
-10.585 -10.585  -0.999  -0.944  -0.892  -0.862  -0.826  -0.743
  3 B2u   2 B1g   4 Ag    3 B3u   4 B2u   5 Ag    3 B1g   4 B3u                
 -0.702  -0.694  -0.604  -0.597  -0.575  -0.529  -0.522  -0.494
  5 B2u   6 Ag    4 B1g   5 B3u   7 Ag    6 B2u   8 Ag    6 B3u                
 -0.490  -0.470  -0.466  -0.453  -0.409  -0.405  -0.403  -0.364
  5 B1g   1 B1u   7 B2u   7 B3u   1 B2g   6 B1g   9 Ag    1 B3g                
 -0.310  -0.288  -0.161
  2 B1u   1 Au    2 B2g                                                        
 -- Virtual --                   
  0.025   0.028   0.083   0.094   0.095   0.108   0.120   0.125
  2 B3g   3 B1u  10 Ag    8 B3u   8 B2u   2 Au   11 Ag    7 B1g                
  0.134   0.151   0.164   0.176   0.200   0.205   0.215   0.216
  9 B2u   9 B3u  12 Ag    8 B1g  10 B3u   3 B3g  10 B2u  13 Ag                 
  0.231   0.235   0.259   0.263   0.269   0.283   0.285   0.291
  4 B1u  11 B2u  11 B3u   3 B2g  14 Ag    4 B3g  15 Ag    9 B1g                
  0.308   0.311   0.313   0.322   0.347   0.349   0.358   0.370
  5 B1u  10 B1g  12 B2u   3 Au   16 Ag   12 B3u  13 B3u   6 B1u                
  0.380   0.387   0.388   0.392   0.406   0.413   0.438   0.443
  4 B2g  14 B3u  17 Ag    5 B3g  13 B2u  14 B2u  11 B1g  15 B2u                
  0.451   0.459   0.465   0.467   0.480   0.491   0.512   0.514
  4 Au   15 B3u  12 B1g  18 Ag   19 Ag   16 B2u  13 B1g   6 B3g                
  0.520   0.524   0.530   0.542   0.542   0.564   0.567   0.583
  5 B2g  16 B3u  17 B2u  20 Ag   14 B1g  17 B3u  18 B2u  15 B1g                
  0.594   0.612   0.636   0.663   0.706   0.714   0.725   0.728
  7 B1u  18 B3u  21 Ag   16 B1g  19 B2u  20 B2u  22 Ag    8 B1u                
  0.750   0.753   0.757   0.769   0.769   0.773   0.790   0.798
 21 B2u  17 B1g  19 B3u   6 B2g  18 B1g  22 B2u   7 B3g   5 Au                 
  0.806   0.812   0.861   0.876   0.889   0.890   0.919   0.926
 20 B3u  23 Ag    7 B2g  19 B1g  21 B3u  24 Ag   25 Ag    6 Au                 
  0.929   0.935   0.943   0.972   0.992   1.016   1.032   1.044
 23 B2u  20 B1g   9 B1u  26 Ag   22 B3u  23 B3u  10 B1u  24 B2u                
  1.055   1.060   1.125   1.146   1.157   1.173   1.188   1.211
  8 B3g  27 Ag   25 B2u  21 B1g   9 B3g  28 Ag    7 Au    8 B2g                
  1.246   1.256   1.262   1.275   1.289   1.294   1.309   1.311
 22 B1g  24 B3u   9 B2g  25 B3u  29 Ag   26 B2u  23 B1g  10 B3g                
  1.316   1.321   1.334   1.337   1.407   1.409   1.444   1.475
 11 B1u  27 B2u  30 Ag   26 B3u  28 B2u   8 Au   24 B1g  29 B2u                
  1.477   1.480   1.482   1.525   1.541   1.577   1.580   1.582
 31 Ag   12 B1u  25 B1g  27 B3u  10 B2g  11 B3g  32 Ag    9 Au                 
  1.593   1.600   1.604   1.621   1.649   1.663   1.673   1.726
 30 B2u  26 B1g  28 B3u  13 B1u  27 B1g  33 Ag   10 Au   31 B2u                
  1.741   1.744   1.751   1.756   1.758   1.775   1.777   1.793
 29 B3u  11 B2g  12 B3g  14 B1u  34 Ag   32 B2u  13 B3g  28 B1g                
  1.799   1.835   1.841   1.913   1.930   1.943   1.958   2.009
 33 B2u  30 B3u  12 B2g  11 Au   35 Ag   15 B1u  14 B3g  12 Au                 
  2.057   2.062   2.065   2.089   2.090   2.093   2.134   2.192
 31 B3u  16 B1u  34 B2u  36 Ag   15 B3g  29 B1g  13 B2g  37 Ag                 
  2.223   2.232   2.240   2.241   2.244   2.252   2.322   2.326
 32 B3u  38 Ag   30 B1g  33 B3u  35 B2u  31 B1g  32 B1g  34 B3u                
  2.348   2.355   2.371   2.390   2.411   2.470   2.517   2.523
 39 Ag   36 B2u  16 B3g  35 B3u  17 B1u  13 Au   40 Ag   37 B2u                
  2.532   2.562   2.574   2.627   2.652   2.653   2.662   2.690
 41 Ag   14 B2g  36 B3u  33 B1g  38 B2u  15 B2g  37 B3u  42 Ag                 
  2.704   2.709   2.721   2.731   2.737   2.755   2.760   2.796
 38 B3u  34 B1g  39 B2u  18 B1u  43 Ag   35 B1g  17 B3g  14 Au                 
  2.802   2.816   2.822   2.845   2.861   2.863   2.892   2.897
 16 B2g  44 Ag   40 B2u  19 B1u  39 B3u  41 B2u  18 B3g  20 B1u                
  2.900   2.904   2.914   2.914   2.928   2.962   2.984   2.990
 45 Ag   36 B1g  17 B2g  40 B3u  42 B2u  37 B1g  43 B2u  21 B1u                
  2.993   2.993   2.995   3.016   3.052   3.075   3.093   3.099
 41 B3u  15 Au   46 Ag   16 Au   38 B1g  18 B2g  44 B2u  39 B1g                
  3.103   3.104   3.107   3.146   3.180   3.196   3.202   3.223
 47 Ag   19 B3g  22 B1u  23 B1u  42 B3u  19 B2g  48 Ag   43 B3u                
  3.252   3.253   3.287   3.289   3.294   3.296   3.297   3.318
 20 B3g  40 B1g  45 B2u  20 B2g  17 Au   21 B3g  49 Ag   24 B1u                
  3.327   3.339   3.339   3.353   3.359   3.399   3.422   3.425
 46 B2u  44 B3u  50 Ag   41 B1g  18 Au   45 B3u  25 B1u  21 B2g                
  3.431   3.445   3.463   3.466   3.467   3.468   3.524   3.524
 47 B2u  51 Ag   42 B1g  52 Ag   46 B3u  22 B3g  43 B1g  19 Au                 
  3.557   3.577   3.579   3.588   3.591   3.615   3.626   3.629
 48 B2u  20 Au   22 B2g  47 B3u  23 B3g  49 B2u  23 B2g  26 B1u                
  3.658   3.686   3.690   3.731   3.747   3.761   3.793   3.823
 24 B3g  44 B1g  50 B2u  48 B3u  45 B1g  53 Ag   51 B2u  21 Au                 
  3.830   3.874   3.922   3.941   3.942   3.945   4.019   4.034
 54 Ag   27 B1u  52 B2u  46 B1g  49 B3u  22 Au   25 B3g  55 Ag                 
  4.043   4.062   4.100   4.120   4.154   4.164   4.173   4.217
 53 B2u  50 B3u  47 B1g  56 Ag   48 B1g  24 B2g  51 B3u  49 B1g                
  4.234   4.260   4.260   4.281   4.291   4.306   4.326   4.364
 26 B3g  57 Ag   28 B1u  54 B2u  55 B2u  50 B1g  58 Ag   29 B1u                
  4.378   4.383   4.407   4.431   4.492   4.496   4.507   4.547
 23 Au   25 B2g  27 B3g  52 B3u  53 B3u  24 Au   59 Ag   51 B1g                
  4.632   4.655   4.742   4.807   4.824   4.855   4.858   4.860
 56 B2u  28 B3g  54 B3u  57 B2u  60 Ag   29 B3g  25 Au   55 B3u                
  4.894   4.896   4.977   5.050   5.145   5.161   5.164   5.199
 58 B2u  61 Ag   52 B1g  56 B3u  59 B2u  62 Ag   53 B1g  60 B2u                
  5.288   5.400   5.423   5.459   5.481   5.713   5.715   5.807
 63 Ag   54 B1g  61 B2u  55 B1g  57 B3u  56 B1g  62 B2u  63 B2u                
  6.039  22.268  22.782  22.881  22.973  23.066  23.161  23.213
 57 B1g  64 Ag   58 B3u  65 Ag   59 B3u  58 B1g  64 B2u  66 Ag                 
 23.264  23.286  23.945
 59 B1g  65 B2u  66 B2u                                                        
 
 Beta MOs, Unrestricted
 -- Occupied --                  
-10.596 -10.595 -10.584 -10.584 -10.583 -10.583 -10.582 -10.582
  1 Ag    1 B2u   1 B3u   2 Ag    2 B2u   1 B1g   2 B3u   2 B1g                
-10.582 -10.582  -0.991  -0.929  -0.874  -0.859  -0.800  -0.724
  3 Ag    3 B2u   4 Ag    3 B3u   4 B2u   5 Ag    3 B1g   4 B3u                
 -0.698  -0.683  -0.593  -0.592  -0.571  -0.525  -0.521  -0.490
  5 B2u   6 Ag    4 B1g   5 B3u   7 Ag    6 B2u   8 Ag    6 B3u                
 -0.484  -0.460  -0.449  -0.441  -0.402  -0.400  -0.358  -0.296
  5 B1g   7 B2u   7 B3u   1 B1u   9 Ag    6 B1g   1 B2g   2 B1u                
 -0.295
  1 B3g                                                                        
 -- Virtual --                   
 -0.109   0.011   0.036   0.074   0.084   0.095   0.097   0.122
  1 Au    2 B2g   2 B3g   3 B1u  10 Ag    8 B3u   8 B2u  11 Ag                 
  0.126   0.135   0.154   0.155   0.166   0.178   0.203   0.206
  7 B1g   9 B2u   9 B3u   2 Au   12 Ag    8 B1g  10 B3u   3 B3g                
  0.217   0.217   0.235   0.245   0.260   0.270   0.273   0.287
 10 B2u  13 Ag   11 B2u   4 B1u  11 B3u   3 B2g  14 Ag   15 Ag                 
  0.297   0.313   0.315   0.316   0.321   0.334   0.349   0.351
  9 B1g  10 B1g  12 B2u   4 B3g   5 B1u   3 Au   16 Ag   12 B3u                
  0.368   0.374   0.391   0.393   0.402   0.408   0.409   0.420
 13 B3u   6 B1u  17 Ag   14 B3u   4 B2g  13 B2u   5 B3g  14 B2u                
  0.445   0.447   0.462   0.466   0.469   0.473   0.486   0.491
 15 B2u  11 B1g  15 B3u   4 Au   12 B1g  18 Ag   19 Ag   16 B2u                
  0.510   0.515   0.531   0.533   0.533   0.544   0.544   0.568
  6 B3g  13 B1g  16 B3u  17 B2u   5 B2g  14 B1g  20 Ag   17 B3u                
  0.570   0.589   0.603   0.614   0.636   0.667   0.709   0.716
 18 B2u  15 B1g   7 B1u  18 B3u  21 Ag   16 B1g  19 B2u  20 B2u                
  0.727   0.736   0.752   0.759   0.759   0.776   0.777   0.787
 22 Ag    8 B1u  21 B2u  19 B3u  17 B1g  18 B1g  22 B2u   6 B2g                
  0.804   0.809   0.814   0.818   0.869   0.879   0.891   0.899
  7 B3g  20 B3u  23 Ag    5 Au    7 B2g  19 B1g  21 B3u  24 Ag                 
  0.921   0.930   0.938   0.944   0.950   0.972   0.999   1.021
 25 Ag   23 B2u  20 B1g   6 Au    9 B1u  26 Ag   22 B3u  23 B3u                
  1.047   1.052   1.064   1.067   1.130   1.150   1.169   1.177
 10 B1u  24 B2u  27 Ag    8 B3g  25 B2u  21 B1g   9 B3g  28 Ag                 
  1.196   1.226   1.252   1.265   1.276   1.280   1.294   1.297
  7 Au    8 B2g  22 B1g  24 B3u   9 B2g  25 B3u  29 Ag   26 B2u                
  1.312   1.315   1.319   1.322   1.338   1.338   1.409   1.427
 23 B1g  10 B3g  11 B1u  27 B2u  26 B3u  30 Ag   28 B2u   8 Au                 
  1.449   1.477   1.482   1.491   1.501   1.528   1.554   1.583
 24 B1g  29 B2u  31 Ag   25 B1g  12 B1u  27 B3u  10 B2g  32 Ag                 
  1.595   1.596   1.602   1.606   1.607   1.624   1.652   1.664
 30 B2u   9 Au   11 B3g  26 B1g  28 B3u  13 B1u  27 B1g  33 Ag                 
  1.686   1.732   1.743   1.754   1.761   1.767   1.771   1.778
 10 Au   31 B2u  29 B3u  12 B3g  34 Ag   14 B1u  11 B2g  32 B2u                
  1.779   1.796   1.803   1.840   1.847   1.930   1.930   1.948
 13 B3g  28 B1g  33 B2u  30 B3u  12 B2g  35 Ag   11 Au   15 B1u                
  1.965   2.015   2.064   2.067   2.067   2.093   2.096   2.098
 14 B3g  12 Au   31 B3u  16 B1u  34 B2u  36 Ag   15 B3g  29 B1g                
  2.140   2.191   2.228   2.237   2.247   2.250   2.251   2.254
 13 B2g  37 Ag   32 B3u  38 Ag   30 B1g  33 B3u  35 B2u  31 B1g                
  2.331   2.331   2.352   2.356   2.374   2.393   2.423   2.476
 34 B3u  32 B1g  39 Ag   36 B2u  16 B3g  35 B3u  17 B1u  13 Au                 
  2.524   2.533   2.537   2.572   2.578   2.630   2.655   2.665
 40 Ag   37 B2u  41 Ag   14 B2g  36 B3u  33 B1g  38 B2u  37 B3u                
  2.666   2.696   2.707   2.715   2.727   2.737   2.740   2.759
 15 B2g  42 Ag   38 B3u  34 B1g  39 B2u  43 Ag   18 B1u  35 B1g                
  2.774   2.809   2.810   2.818   2.827   2.854   2.867   2.868
 17 B3g  16 B2g  14 Au   44 Ag   40 B2u  19 B1u  41 B2u  39 B3u                
  2.899   2.906   2.908   2.909   2.919   2.923   2.934   2.964
 20 B1u  18 B3g  45 Ag   36 B1g  40 B3u  17 B2g  42 B2u  37 B1g                
  2.990   2.994   2.998   3.003   3.009   3.034   3.057   3.084
 43 B2u  21 B1u  41 B3u  15 Au   46 Ag   16 Au   38 B1g  18 B2g                
  3.093   3.103   3.106   3.112   3.121   3.155   3.190   3.205
 44 B2u  47 Ag   39 B1g  19 B3g  22 B1u  23 B1u  42 B3u  19 B2g                
  3.210   3.238   3.264   3.266   3.289   3.300   3.301   3.302
 48 Ag   43 B3u  20 B3g  40 B1g  45 B2u  49 Ag   20 B2g  17 Au                 
  3.309   3.330   3.332   3.341   3.341   3.358   3.380   3.402
 21 B3g  24 B1u  46 B2u  50 Ag   44 B3u  41 B1g  18 Au   45 B3u                
  3.433   3.436   3.441   3.446   3.467   3.470   3.471   3.485
 47 B2u  25 B1u  21 B2g  51 Ag   52 Ag   46 B3u  42 B1g  22 B3g                
  3.529   3.535   3.558   3.580   3.593   3.593   3.593   3.621
 43 B1g  19 Au   48 B2u  20 Au   47 B3u  22 B2g  23 B3g  49 B2u                
  3.638   3.638   3.666   3.689   3.691   3.735   3.750   3.765
 23 B2g  26 B1u  24 B3g  44 B1g  50 B2u  48 B3u  45 B1g  53 Ag                 
  3.797   3.831   3.831   3.883   3.926   3.947   3.949   3.954
 51 B2u  21 Au   54 Ag   27 B1u  52 B2u  49 B3u  46 B1g  22 Au                 
  4.028   4.040   4.048   4.065   4.107   4.124   4.156   4.179
 25 B3g  55 Ag   53 B2u  50 B3u  47 B1g  56 Ag   48 B1g  24 B2g                
  4.180   4.220   4.236   4.263   4.270   4.287   4.294   4.308
 51 B3u  49 B1g  26 B3g  57 Ag   28 B1u  54 B2u  55 B2u  50 B1g                
  4.330   4.375   4.387   4.391   4.415   4.434   4.493   4.507
 58 Ag   29 B1u  23 Au   25 B2g  27 B3g  52 B3u  53 B3u  24 Au                 
  4.510   4.548   4.638   4.663   4.747   4.809   4.828   4.862
 59 Ag   51 B1g  56 B2u  28 B3g  54 B3u  57 B2u  60 Ag   29 B3g                
  4.865   4.865   4.896   4.900   4.980   5.055   5.147   5.164
 55 B3u  25 Au   58 B2u  61 Ag   52 B1g  56 B3u  59 B2u  62 Ag                 
  5.168   5.201   5.290   5.403   5.424   5.464   5.483   5.717
 53 B1g  60 B2u  63 Ag   54 B1g  61 B2u  55 B1g  57 B3u  62 B2u                
  5.717   5.809   6.040  22.271  22.783  22.884  22.980  23.072
 56 B1g  63 B2u  57 B1g  64 Ag   58 B3u  65 Ag   59 B3u  58 B1g                
 23.162  23.213  23.267  23.292  23.943
 64 B2u  66 Ag   59 B1g  65 B2u  66 B2u                                        
 --------------------------------------------------------------
 
          Ground-State Mulliken Net Atomic Charges

     Atom                 Charge (a.u.)    Spin (a.u.)
  --------------------------------------------------------
      1 C                     0.084616      -0.231172
      2 C                     0.084616      -0.231172
      3 C                    -0.159289       0.557356
      4 C                    -0.132634       0.093863
      5 C                    -0.132634       0.093863
      6 C                    -0.159289       0.557356
      7 C                    -0.159289       0.557356
      8 C                    -0.159289       0.557356
      9 C                    -0.132634       0.093863
     10 C                    -0.132634       0.093863
     11 H                     0.124721      -0.027269
     12 H                     0.124894      -0.008364
     13 H                     0.124894      -0.008364
     14 H                     0.124721      -0.027269
     15 H                     0.124721      -0.027269
     16 H                     0.124894      -0.008364
     17 H                     0.124894      -0.008364
     18 H                     0.124721      -0.027269
  --------------------------------------------------------
  Sum of atomic charges =     0.000000
  Sum of spin   charges =     2.000000

 -----------------------------------------------------------------
                    Cartesian Multipole Moments
 -----------------------------------------------------------------
    Charge (ESU x 10^10)
                 0.0000
    Dipole Moment (Debye)
         X      -0.0000      Y      -0.0000      Z      -0.0000
       Tot       0.0000
    Quadrupole Moments (Debye-Ang)
        XX     -52.1352     XY       0.0000     YY     -51.0746
        XZ       0.0000     YZ       0.0000     ZZ     -64.5805
    Octopole Moments (Debye-Ang^2)
       XXX      -0.0000    XXY      -0.0000    XYY      -0.0000
       YYY      -0.0000    XXZ       0.0000    XYZ       0.0000
       YYZ      -0.0000    XZZ      -0.0000    YZZ      -0.0000
       ZZZ      -0.0000
    Hexadecapole Moments (Debye-Ang^3)
      XXXX   -1140.1097   XXXY      -0.0000   XXYY    -264.0576
      XYYY       0.0000   YYYY    -476.1032   XXXZ      -0.0000
      XXYZ      -0.0000   XYYZ       0.0000   YYYZ       0.0000
      XXZZ    -251.1529   XYZZ      -0.0000   YYZZ    -111.7363
      XZZZ       0.0000   YZZZ       0.0000   ZZZZ     -77.4849
 -----------------------------------------------------------------
 Total job time:  9038.83s(wall), 8934.69s(cpu) 
 Mon Dec  4 23:17:57 2023

        *************************************************************
        *                                                           *
        *  Thank you very much for using Q-Chem.  Have a nice day.  *
        *                                                           *
        *************************************************************


