                  Welcome to Q-Chem
     A Quantum Leap Into The Future Of Chemistry


 Q-Chem 6.0 (devel), Q-Chem, Inc., Pleasanton, CA (2022)

 E. Epifanovsky,  A. T. B. Gilbert,  Xintian Feng,  Joonho Lee,  Yuezhi Mao,  
 N. Mardirossian,  P. Pokhilko,  A. White,  M. Wormit,  M. P. Coons,  
 A. L. Dempwolff,  Zhengting Gan,  D. Hait,  P. R. Horn,  L. D. Jacobson,  
 I. Kaliman,  J. Kussmann,  A. W. Lange,  Ka Un Lao,  D. S. Levine,  Jie Liu,  
 S. C. McKenzie,  A. F. Morrison,  K. Nanda,  F. Plasser,  D. R. Rehn,  
 M. L. Vidal,  Zhi-Qiang You,  Ying Zhu,  B. Alam,  B. Albrecht,  
 A. Aldossary,  E. Alguire,  J. H. Andersen,  V. Athavale,  D. Barton,  
 K. Begam,  A. Behn,  N. Bellonzi,  Y. A. Bernard,  E. J. Berquist,  
 H. Burton,  A. Carreras,  K. Carter-Fenk,  Romit Chakraborty,  
 Chandrima Chakravarty,  Junhan Chen,  A. D. Chien,  K. D. Closser,  
 V. Cofer-Shabica,  L. Cunha,  S. Dasgupta,  Jia Deng,  M. de Wergifosse,  
 M. Diedenhofen,  Hainam Do,  S. Ehlert,  Po-Tung Fang,  S. Fatehi,  
 Qingguo Feng,  T. Friedhoff,  B. Ganoe,  J. Gayvert,  Qinghui Ge,  
 G. Gidofalvi,  M. Goldey,  J. Gomes,  C. Gonzalez-Espinoza,  S. Gulania,  
 A. Gunina,  J. A. Gyamfi,  M. W. D. Hanson-Heine,  P. H. P. Harbach,  
 A. W. Hauser,  M. F. Herbst,  M. Hernandez Vera,  M. Hodecker,  
 Z. C. Holden,  S. Houck,  Xunkun Huang,  Kerwin Hui,  B. C. Huynh,  
 K. Ikeda,  M. Ivanov,  Hyunjun Ji,  Zuxin Jin,  Hanjie Jiang,  B. Kaduk,  
 S. Kaehler,  R. Kang,  K. Khistyaev,  Jaehoon Kim,  Yongbin Kim,  
 P. Klunzinger,  Z. Koczor-Benda,  Joong Hoon Koh,  D. Kosenkov,  
 Saikiran Kotaru,  L. Koulias,  T. Kowalczyk,  C. M. Krauter,  K. Kue,  
 A. Kunitsa,  T. Kus,  A. Landau,  K. V. Lawler,  D. Lefrancois,  S. Lehtola,  
 Rain Li,  Shaozhi Li,  Yi-Pei Li,  Jiashu Liang,  M. Liebenthal,  
 Hung-Hsuan Lin,  You-Sheng Lin,  Fenglai Liu,  Kuan-Yu Liu,  
 M. Loipersberger,  A. Luenser,  C. Malbon,  A. Manjanath,  P. Manohar,  
 E. Mansoor,  S. F. Manzer,  Shan-Ping Mao,  A. V. Marenich,  T. Markovich,  
 S. Mason,  F. Matz,  S. A. Maurer,  P. F. McLaughlin,  M. F. S. J. Menger,  
 J.-M. Mewes,  S. A. Mewes,  P. Morgante,  Mohammad Mostafanejad,  
 J. W. Mullinax,  K. J. Oosterbaan,  G. Paran,  V. Parravicini,  
 Alexander C. Paul,  Suranjan K. Paul,  F. Pavosevic,  Zheng Pei,  S. Prager,  
 E. I. Proynov,  E. Ramos,  B. Rana,  A. E. Rask,  A. Rettig,  R. M. Richard,  
 F. Rob,  E. Rossomme,  T. Scheele,  M. Scheurer,  M. Schneider,  
 P. E. Schneider,  N. Sergueev,  S. M. Sharada,  Hengyuan Shen,  
 W. Skomorowski,  D. W. Small,  C. J. Stein,  Yingli Su,  Yu-Chuan Su,  
 E. J. Sundstrom,  Zhen Tao,  J. Thirman,  Hung-Yi Tsai,  T. Tsuchimochi,  
 N. M. Tubman,  C. Utku,  S. P. Veccham,  O. Vydrov,  J. Wenzel,  
 Jonathan Wong,  J. Witte,  A. Yamada,  Chou-Hsun Yang,  Kun Yao,  
 S. Yeganeh,  S. R. Yost,  A. Zech,  F. Zeller,  Igor Ying Zhang,  
 Xing Zhang,  Yu Zhang,  D. Zuev,  A. Aspuru-Guzik,  A. T. Bell,  
 N. A. Besley,  K. B. Bravaya,  B. R. Brooks,  D. Casanova,  Jeng-Da Chai,  
 Hsing-Ta Chen,  S. Coriani,  C. J. Cramer,  A. E. DePrince, III,  
 R. A. DiStasio Jr.,  A. Dreuw,  B. D. Dunietz,  T. R. Furlani,  
 W. A. Goddard III,  S. Grimme,  S. Hammes-Schiffer,  T. Head-Gordon,  
 W. J. Hehre,  Chao-Ping Hsu,  T.-C. Jagau,  Yousung Jung,  A. Klamt,  
 Jing Kong,  D. S. Lambrecht,  Xiangyuan Li,  WanZhen Liang,  N. J. Mayhall,  
 C. W. McCurdy,  J. B. Neaton,  T. Neudecker,  C. Ochsenfeld,  
 J. A. Parkhill,  R. Peverati,  V. A. Rassolov,  Haisheng Ren,  Yihan Shao,  
 L. V. Slipchenko,  R. P. Steele,  J. E. Subotnik,  A. J. W. Thom,  
 A. Tkatchenko,  D. G. Truhlar,  T. Van Voorhis,  Fan Wang,  
 T. A. Wesolowski,  K. B. Whaley,  H. L. Woodcock III,  P. M. Zimmerman,  
 S. Faraji,  P. M. W. Gill,  M. Head-Gordon,  J. M. Herbert,  A. I. Krylov

 Contributors to earlier versions of Q-Chem not listed above: 
 R. D. Adamson,  B. Austin,  R. Baer,  J. Baker,  G. J. O. Beran,  
 K. Brandhorst,  S. T. Brown,  E. F. C. Byrd,  Arup K. Chakraborty,  
 G. K. L. Chan,  Chun-Min Chang,  Yunqing Chen,  C.-L. Cheng,  
 Siu Hung Chien,  D. M. Chipman,  D. L. Crittenden,  H. Dachsel,  
 R. J. Doerksen,  A. D. Dutoi,  R. G. Edgar,  J. Fosso-Tande,  
 L. Fusti-Molnar,  D. Ghosh,  A. Ghysels,  A. Golubeva-Zadorozhnaya,  
 J. Gonthier,  M. S. Gordon,  S. R. Gwaltney,  G. Hawkins,  J. E. Herr,  
 A. Heyden,  S. Hirata,  E. G. Hohenstein,  G. Kedziora,  F. J. Keil,  
 C. Kelley,  Jihan Kim,  R. A. King,  R. Z. Khaliullin,  P. P. Korambath,  
 W. Kurlancheek,  A. Laurent,  A. M. Lee,  M. S. Lee,  S. V. Levchenko,  
 Ching Yeh Lin,  D. Liotard,  E. Livshits,  R. C. Lochan,  I. Lotan,  
 L. A. Martinez-Martinez,  P. E. Maslen,  N. Nair,  D. P. O'Neill,  
 D. Neuhauser,  E. Neuscamman,  C. M. Oana,  R. Olivares-Amaya,  R. Olson,  
 T. M. Perrine,  B. Peters,  P. A. Pieniazek,  A. Prociuk,  Y. M. Rhee,  
 J. Ritchie,  M. A. Rohrdanz,  E. Rosta,  N. J. Russ,  H. F. Schaefer III,  
 M. W. Schmidt,  N. E. Schultz,  S. Sharma,  N. Shenvi,  C. D. Sherrill,  
 A. C. Simmonett,  A. Sodt,  T. Stein,  D. Stuck,  K. S. Thanthiriwatte,  
 V. Vanovschi,  L. Vogt,  Tao Wang,  A. Warshel,  M. A. Watson,  
 C. F. Williams,  Q. Wu,  X. Xu,  Jun Yang,  W. Zhang,  Yan Zhao

   Please cite Q-Chem as follows:
  "Software for the frontiers of quantum chemistry:
   An overview of developments in the Q-Chem 5 package"
   J. Chem. Phys. 155, 084801 (2021)
   https://doi.org/10.1063/5.0055522 (open access)

 Q-Chem 6.0.1 for Intel X86 EM64T Linux

 Parts of Q-Chem use Armadillo 9.900.5 (Nocturnal Misbehaviour).
 http://arma.sourceforge.net/

 Q-Chem begins on Fri Sep 22 17:43:13 2023  

 Host: atlas-117
0

     Scratch files written to ./qchem177297//
 Processing $rem in /scratch/abel/SOFTWARE/qchem/config/preferences:
 Processing $rem in /dipc/acebg/.qchemrc:

 Checking the input file for inconsistencies... 	...done.

--------------------------------------------------------------
User input:
--------------------------------------------------------------
$comment
 RAS-SF CALCULATION
$end

$molecule
 READ benzophenone.molecule
$end

$rem
!**CALCULATION TYPE***     
JOBTYPE            sp    
EXCHANGE           HF
CORRELATION        RASCI    !RASCI=Casanova; RASCI2=Zimmerman
BASIS              def2-TZVP
BASIS2             STO-3G

!***SCF REFERENCE***
INPUT_BOHR          TRUE
!SKIP_SCFMAN        FALSE
UNRESTRICTED       FALSE
!SCF_GUESS          core
!SCF_GUESS_MIX      FALSE
!SCF_GUESS_ALWAYS   FALSE
MAX_SCF_CYCLES     999
!SCF_CONVERGENCE    8
SCF_ALGORITHM      DIIS_GDM !DIIS,DM,DIIS_DM,GDM,DIIS_GDM,GD

!SYMMETRY           TRUE   !use of symmetry for calculating integrals
!SYM_IGNORE         FALSE  !turn off using symmetry
!SYM_TOL            5      !tolerance for determining point group
!USE_ABELIAN_SUBGROUP      !define to use abelian group

!THRESH             14
SCF_FINAL_PRINT     1 !0,1,2,3

!****RAS-SF****
RAS_ROOTS          10       !number of RAS-CI roots to be computed
SET_ITER           100     !number of iterations in RASCI
RAS_ELEC           14       !number of electrons in RAS2
!!RAS_ELEC_ALPHA     8       !spin-α electrons in RAS2 
!!RAS_ELEC_BETA      6       !spin-β electrons in RAS2

RAS_ACT            11       !number of orbitals in RAS2 
RAS_ACT_ORB [40,41,44,45,46,47,48,49,50,51,52]  !user-selected RAS2 orbitals
RAS_OCC            41       !number of orbitals in RAS1
N_FROZEN_CORE      21     !Number of frozen core orbitals
N_FROZEN_VIRTUAL   422      !Number of frozen virtual orbitals

RAS_DO_HOLE        TRUE   !presence of hole excitations in RAS-CI wave function
RAS_DO_PART        TRUE   !presence of particle excitations
!RAS_AMPL_PRINT     10     !threshold (×10 2 ) for the CI amplitudes

!RAS_GUESS_CS       0      !number of closed shell guess conﬁgurations
RAS_SPIN_MULT      0      !spin multiplicity. Only for Ms = 0 
!RAS_SRDFT          FALSE  !short-range density functional RAS-CI
!RAS_NFRAG          0     !fragments of excitation analysis in RASCI

RAS_PRINT          2      !level of information
RAS_NATORB         TRUE   !computation of the natural orbital occupancies
!RAS_NATORB_STATE  0      !Saves NO of i RAS computed state in .fchk ﬁle
!RAS_FOD            TRUE

!****RAS-SOC****
CALC_SOC           TRUE   !calculate SOC for EOM-CC, RAS-CI, ADC, TDDFT/TDA and TDDFT
!RAS_SOC_2E        TRUE   !two-electron mean-ﬁeld contribution, default=true
RAS_SOC_SYM_DENS   TRUE   !averaging of α and β densities

!****MEMORY****
MEM_TOTAL          12000 !Default 2000 MB
MEM_STATIC         3000  !Default 64 MB

!**Molecular Properties and Analysis **                                                                                          
POP_MULLIKEN       TRUE   !Run Mulliken population analysis
LOWDIN_POPULATION  TRUE   !Run Löwdin population analysis
GUI                2       !Checkpoints generation
STATE_ANALYSIS     TRUE

!**Wave function analysis of RAS-CI states: MOLDEN**
!PLOTS = 0     ! Note: This can be omitted, default is 0
!NTO_PAIRS = 2 ! Note: This can be omitted, default is 2
!GUI 0
!MOLDEN_FORMAT      TRUE
!PRINT_ORBITALS     15

!**Wave function analysis of RAS-CI state: CUBE**
!NTO_PAIRS = 2 ! Note: This can be omitted, default is 2
!PLOTS = 1
!GUI 0

!**SR-DFT**
!RAS_SRDFT           TRUE !Perform short-range density functional RAS-CI
!RAS_SRDFT_EXC       0 !EX functional. 0=HF. 
!RAS_SRDFT_ONLY_COR  TRUE !No use of EXC functional
!RAS_SRDFT_COR       srPBE !short-range correlation functional
!ras_srdft_0         TRUE !true: no iteration (one-shot); false: iteration
!RAS_OMEGA           400 !Coulomb range-separation parameter. def=400
!RAS_SRDFT_DAMP     0.5 !dumping factor. def=0.5
$end

!$plots
!   grid_points 100 100 100
!   grid_range  (-10,10) (-10,10) (-10,10)
!$end

--------------------------------------------------------------
 ----------------------------------------------------------------
             Standard Nuclear Orientation (Bohr)
    I     Atom           X                Y                Z
 ----------------------------------------------------------------
    1      C       0.0000000000    -0.0000000000     1.7616000772
    2      O       0.0000000000    -0.0000000000     4.2626453788
    3      C      -2.4515146503    -0.0331342717     0.5854026033
    4      C       2.4515146503     0.0331342717     0.5854026033
    5      C       2.8430013288     1.0880866231    -1.8463666677
    6      C       4.5970400963    -0.8671930082     1.9264083375
    7      C       6.9748613791    -0.7928839619     0.8403562343
    8      C       5.2262074578     1.1225172668    -2.9109015756
    9      C       7.3157580598     0.1834271136    -1.5850434514
   10      H       1.2649900922     1.9042492020    -2.8578536668
   11      H       4.3392930822    -1.6659511958     3.7896568207
   12      H       5.4817259580     1.9198549006    -4.7799236178
   13      H       8.5807201718    -1.5192143035     1.8831820792
   14      H       9.1788078092     0.2325165625    -2.4295762444
   15      C      -2.8430013288    -1.0880866231    -1.8463666677
   16      C      -4.5970400963     0.8671930082     1.9264083375
   17      C      -5.2262074578    -1.1225172668    -2.9109015756
   18      C      -6.9748613791     0.7928839619     0.8403562343
   19      C      -7.3157580598    -0.1834271136    -1.5850434514
   20      H      -1.2649900922    -1.9042492020    -2.8578536668
   21      H      -5.4817259580    -1.9198549006    -4.7799236178
   22      H      -4.3392930822     1.6659511958     3.7896568207
   23      H      -8.5807201718     1.5192143035     1.8831820792
   24      H      -9.1788078092    -0.2325165625    -2.4295762444
 ----------------------------------------------------------------
 Molecular Point Group                 C2    NOp =  2
 Largest Abelian Subgroup              C2    NOp =  2
 Nuclear Repulsion Energy =         772.43069410 hartrees
 There are       49 alpha and       47 beta electrons
 Requested basis set is def2-TZVP
 There are 194 shells and 494 basis functions

 Total QAlloc Memory Limit  12000 MB
 Mega-Array Size      2933 MB
 MEM_STATIC part      3000 MB

 A cutoff of  1.0D-09 yielded  13678 shell pairs
 There are     87354 function pairs (    112510 Cartesian)
 Smallest overlap matrix eigenvalue = 8.18E-06

 Q-Chem warning in module stvman/mkSTV.C, line 313:

 Overlap eigenvalue is smaller than square root of threshold
 Use THRESH >= 12 to get rid of this warning


 Scale SEOQF with 1.000000e-01/1.000000e+00/1.000000e-01

 Standard Electronic Orientation quadrupole field applied
 Nucleus-field energy     =     0.0000000231 hartrees
 Requested basis set is STO-3G
 There are 38 shells and 80 basis functions
 A cutoff of  1.0D-09 yielded    531 shell pairs
 There are      2742 function pairs
 Smallest overlap matrix eigenvalue = 1.73E-01
 Constructing guess Fock matrix from core Hamiltonian
 Applying Wolfsberg-Helmholtz approximation
 A restricted Hartree-Fock SCF calculation will be
 performed using Geometric Direct Minimization
 SCF converges when RMS gradient is below 1.0E-04
 ---------------------------------------
  Cycle       Energy        RMS Gradient
 ---------------------------------------
    1    -563.5189813627      3.78E-01 Descent step
    2    -564.1073352384      2.94E-01 Descent step
    3    -564.5762614188      2.35E-01 Descent step
    4    -564.9424222796      3.10E-01 Descent step
    5    -565.2385720744      4.42E-01 Descent step
    6    -565.5186594576      2.72E-01 Descent step
    7    -565.7068111177      1.77E-01 Descent step
    8    -565.8063347325      7.75E-02 Dog-leg BFGS step
    9    -565.8197166914      7.27E-02 Normal BFGS step
   10    -565.8079560722      8.11E-02 Line search: overstep
   11    -565.8300208096      4.05E-02 Descent step
   12    -565.8348600491      3.54E-02 Normal BFGS step
   13    -565.8355378695      1.28E-02 Normal BFGS step
   14    -565.8358576558      4.09E-03 Normal BFGS step
   15    -565.8359171123      2.92E-03 Normal BFGS step
   16    -565.8359561849      1.86E-03 Normal BFGS step
   17    -565.8359781573      1.30E-03 Normal BFGS step
   18    -565.8359889881      1.08E-03 Normal BFGS step
   19    -565.8359931603      7.13E-04 Normal BFGS step
   20    -565.8359947151      3.36E-04 Normal BFGS step
   21    -565.8359951645      1.96E-04 Normal BFGS step
   22    -565.8359952311      9.64E-05 Convergence criterion met
 ---------------------------------------
 One-Electron    Energy = -2305.4763240232
 Total Coulomb   Energy =  1046.6215714433
 Alpha Exchange  Energy =   -40.3563193634
 Beta  Exchange  Energy =   -39.0556174122
 DFT   Exchange  Energy =     0.0000000000
 DFT Correlation Energy =     0.0000000000
 Nuclear Repu.   Energy =   772.4306941244
 Nuclear Attr.   Energy = -2866.5234544087
 Kinetic         Energy =   561.0471303854
 SCF time:  CPU 3.83 s  wall 5.11 s
 SCF   energy in the small basis set = -565.83599523
 Total energy in the small basis set = -565.83599523
 ----------------------------------------------------
  Cycle       Energy    
 ----------------------------------------------------
    1     -71.5185056489     -7.15E+01
 A restricted Hartree-Fock SCF calculation will be
 performed using Geometric Direct Minimization
 SCF converges when RMS gradient is below 1.0E-05
 ---------------------------------------
  Cycle       Energy        RMS Gradient
 ---------------------------------------
    1    -572.8384162148      4.89E-01 Descent step
    2    -572.8764802812      3.47E-01 Descent step
    3    -573.0028633520      9.82E-02 Descent step
    4    -573.0646717880      1.32E-01 Normal BFGS step
    5    -573.0781860123      1.34E-01 Normal BFGS step
    6    -573.0794718724      1.07E-01 Normal BFGS step
    7    -573.0875361402      3.49E-02 Normal BFGS step
    8    -573.0895883328      2.03E-02 Normal BFGS step
    9    -573.0904120621      1.26E-02 Normal BFGS step
   10    -573.0913895967      1.03E-02 Normal BFGS step
   11    -573.0918054956      7.53E-03 Normal BFGS step
   12    -573.0920914255      3.74E-03 Normal BFGS step
   13    -573.0921412321      1.92E-03 Normal BFGS step
   14    -573.0921486914      9.60E-04 Normal BFGS step
   15    -573.0921498064      3.98E-04 Normal BFGS step
   16    -573.0921492016      3.61E-05 Line search: overstep
   17    -573.0921499934      2.66E-04 Normal BFGS step
   18    -573.0921493321      2.49E-05 Line search: overstep
   19    -573.0921501081      1.94E-04 Normal BFGS step
   20    -573.0921493493      1.95E-05 Line search: overstep
   21    -573.0921501020      6.35E-05 Line search: overstep
   22    -573.0921511756      6.75E-05 Line search: understep
   23    -573.0921501963      1.64E-04 Normal BFGS step
   24    -573.0921495614      6.61E-05 Line search: overstep
   25    -573.0921502007      1.34E-04 Normal BFGS step
   26    -573.0921496268      1.61E-05 Line search: overstep
   27    -573.0921502144      1.17E-04 Normal BFGS step
   28    -573.0921495319      1.78E-05 Line search: overstep
   29    -573.0921502554      1.04E-04 Normal BFGS step
   30    -573.0921502299      5.78E-05 Line search: overstep
   31    -573.0921507408      5.88E-05 Normal BFGS step
   32    -573.0921509999      1.64E-05 Normal BFGS step
   33    -573.0921495139      6.51E-06 Convergence criterion met
 ---------------------------------------
 One-Electron    Energy = -2309.5737999987
 Total Coulomb   Energy =  1043.3490984323
 Alpha Exchange  Energy =   -40.2366623579
 Beta  Exchange  Energy =   -39.0614797141
 DFT   Exchange  Energy =     0.0000000000
 DFT Correlation Energy =     0.0000000000
 Nuclear Repu.   Energy =   772.4306941244
 Nuclear Attr.   Energy = -2882.1129269061
 Kinetic         Energy =   572.5391269075
 SCF time:  CPU 2608.86 s  wall 2621.29 s
 SCF   energy in the final basis set = -573.09214951
 Total energy in the final basis set = -573.09214951
  
     ##========================================##
     ||                                        ||
     ||              R A S M A N 2             ||
     ||________________________________________||
     ||                                        ||
     ||  Author:                               ||
     ||                                        ||
     ||        David Casanova (2010)           ||
     ||                                        ||
     ##========================================##
  
Setting single-point xc-functionals (if necessary)

  ***************************************************
  *  RAS-CI Dimensions:                             *
  *                                                 *
  *  Active Elec.:  14 ( 7, 7)   Active Orb.:  11   *
  *  Doubly Occ. :  41           Doubly Vir.: 442   *
  *  Frozen Occ. :  21           Frozen Vir.: 422   *
  *                                                 *
  *  Total CI configurations:   8385300             * 
  *    Active configurations:    108900             * 
  *      Hole configurations:   2178000             * 
  *  Particle configurations:   6098400             * 
  *                                                 *
  *   Requested states:       10                    *
  *  Spin multiplicity: Any multiplicity            *
  *                                                 *
  ***************************************************
-----------------------------------------
    Memory requirements of RASCI

 Each CI-vector requires     63.97 MiB 
 Max. subspace vectors           1000      

 Reduced Lists                0.02 MiB 
 Excitation Lists             0.03 MiB 
 Excitation Lists Sign        0.03 MiB 
 CI-space (Max)           64622.15 MiB 
 Integrals                  433.85 MiB 
 Memory required (Max)    64622.22 MiB 
 Memory available          2861.02 MiB 

 Q-Chem warning in module rasman2/ras_mem_check.C, line 162:

 Static memory may be insufficient to store the subspace vectors


    Disk requirements of RASCI

 Fock matrix                  3.72 MiB 
 2-electron integrals         4.73 MiB 
 CI-space                127949.52 MiB 
 Disk required           127957.98 MiB 
-----------------------------------------
  
RAS1 HF-like energy:           -551.0877594036
 Computing integrals
 Computing J and K matrices
 Computing addressing
 Making amplitude guesses
 
Direct CI diagonalization
 ---------------------------------------------------
 Iter    Rts Conv    Rts Left    Ttl Dev     Max Dev
 ---------------------------------------------------
   1         0          10      0.001042    0.000125
   2         0          10      0.000706    0.000101
   3         0          10      0.000544    0.000081
   4         0          10      0.000433    0.000081
   5         0          10      0.000330    0.000064
   6         0          10      0.000297    0.000059
   7         0          10      0.000319    0.000071
   8         0          10      0.000328    0.000074
   9         0          10      0.000287    0.000071
  10         0          10      0.000252    0.000059
  11         0          10      0.000233    0.000049
  12         0          10      0.000221    0.000038
  13         0          10      0.000252    0.000066
  14         1           9      0.000254    0.000066
  15         1           9      0.000236    0.000066
  16         1           9      0.000230    0.000049
  17         1           9      0.000192    0.000049
  18         1           9      0.000167    0.000042
  19         1           9      0.000140    0.000032
  20         2           8      0.000118    0.000024
  21         2           8      0.000098    0.000022
  22         2           8      0.000079    0.000018
  23         3           7      0.000065    0.000015
  24         3           7      0.000056    0.000013
  25         3           7      0.000049    0.000011
  26         3           7      0.000044    0.000011
  27         3           7      0.000039    0.000010
  28         3           7      0.000034    0.000009
  29         4           6      0.000029    0.000008
  30         4           6      0.000024    0.000006
  31         4           6      0.000020    0.000005
  32         4           6      0.000017    0.000004
  33         5           5      0.000015    0.000003
  34         6           4      0.000013    0.000003
  35         6           4      0.000012    0.000003
  36         6           4      0.000011    0.000002
  37         6           4      0.000009    0.000002
  38         8           2      0.000008    0.000002
  39         9           1      0.000007    0.000001
  40         9           1      0.000007    0.000001
  41         9           1      0.000013    0.000007
  42         9           1      0.000012    0.000006
  43         9           1      0.000011    0.000005
  44         9           1      0.000010    0.000004
  45         9           1      0.000009    0.000004
  46         9           1      0.000008    0.000003
  47         9           1      0.000008    0.000003
  48         9           1      0.000007    0.000002
  49         9           1      0.000007    0.000002
  50         9           1      0.000007    0.000001
  51         9           1      0.000006    0.000001
  52        10           0      0.000006    0.000001    Roots Converged
 ---------------------------------------------------
   
**************************************************
 RAS-CI total energy for state   1:   -573.214564464289
  Excitation energy (eV) =  0.000000000000
 Warning : Irrep of orbital( 140) could not be determined
 Warning : Irrep of orbital( 141) could not be determined
 Warning : Irrep of orbital( 140) could not be determined
 Warning : Irrep of orbital( 141) could not be determined
  State symmetry: A     (C2       )
  <S^2>      :  0.0000
  Dipole Moment:   -0.0000 X     0.0000 Y     1.0353 Z
 NATURAL OCCUPATION NUMBERS (higher than 1.0E-05)
            1           2           3           4           5           6
    1   2.0000000   2.0000000   2.0000000   2.0000000   2.0000000   2.0000000
            7           8           9          10          11          12
    1   2.0000000   2.0000000   2.0000000   2.0000000   2.0000000   2.0000000
           13          14          15          16          17          18
    1   2.0000000   2.0000000   2.0000000   2.0000000   2.0000000   2.0000000
           19          20          21          22          23          24
    1   2.0000000   2.0000000   2.0000000   1.9999995   1.9999990   1.9999987
           25          26          27          28          29          30
    1   1.9999979   1.9999966   1.9999952   1.9999951   1.9999916   1.9999912
           31          32          33          34          35          36
    1   1.9999892   1.9999889   1.9999775   1.9999722   1.9999681   1.9999611
           37          38          39          40          41          42
    1   1.9999327   1.9999234   1.9998257   1.9993756   1.9953707   1.9937416
           43          44          45          46          47          48
    1   1.9932474   1.9730582   1.9629459   1.9575484   1.9571978   1.8895827
           49          50          51          52          53          54
    1   0.1207842   0.0465536   0.0462874   0.0455163   0.0121684   0.0035042
           55          56          57          58          59          60
    1   0.0015329   0.0010051   0.0002939   0.0002434   0.0002324   0.0000802
           61          62          63          64          65
    1   0.0000614   0.0000547   0.0000470   0.0000168   0.0000165
Natural Orbitals stored in FCHK

  Amplitudes : 
  
 | HOLE  | ALPHA       | BETA        | PART  |    AMPLITUDE 
--------------------------------------------------
 |       | 11111110000 | 11111110000 |       |     7.6109696034213E-01
 |       | 11111110000 | 10111111000 |       |    -1.1808801593637E-01
 |       | 10111111000 | 11111110000 |       |    -1.1808801593645E-01
 |  31   | 11111111000 | 11111110000 |       |     1.3866405616408E-01
 |  31   | 11111110000 | 11111111000 |       |     1.3866405616403E-01
 |  34   | 11111111000 | 11111110000 |       |    -2.0226123175138E-01
 |  34   | 11111110000 | 11111111000 |       |    -2.0226123175129E-01
 |  37   | 11111111000 | 11111110000 |       |    -2.5810344269595E-01
 |  37   | 11111110000 | 11111111000 |       |    -2.5810344269581E-01
--------------------------------------------------
*** Contributions RASCI wfn    Active:  69.28
                                 Hole:  28.33
                                 Part:   2.39

      Mulliken population analysis 
 ---------------------------------------------------
   Atom    Charge (a.u.)   Spin (a.u.)  
 ---------------------------------------------------
   1  C    0.422255        0.000000 
   2  O   -0.406785       -0.000000 
   3  C    0.145805        0.000000 
   4  C    0.146095        0.000000 
   5  C   -0.315924       -0.000000 
   6  C   -0.167032       -0.000000 
   7  C   -0.111565        0.000000 
   8  C   -0.082883        0.000000 
   9  C   -0.134427       -0.000000 
  10  H    0.152880       -0.000000 
  11  H    0.124084       -0.000000 
  12  H    0.126761        0.000000 
  13  H    0.126730        0.000000 
  14  H    0.127560       -0.000000 
  15  C   -0.315735       -0.000000 
  16  C   -0.166812       -0.000000 
  17  C   -0.083103        0.000000 
  18  C   -0.111715        0.000000 
  19  C   -0.134225       -0.000000 
  20  H    0.152894       -0.000000 
  21  H    0.126755        0.000000 
  22  H    0.124085       -0.000000 
  23  H    0.126728        0.000000 
  24  H    0.127573       -0.000000 
 ---------------------------------------------------
   Sum:    0.000000       -0.000000 
 ---------------------------------------------------
 
  
 NATURAL OCCUPATION NUMBERS (higher than 1.0E-05)
            1           2           3           4           5           6
    1   2.0000000   2.0000000   2.0000000   2.0000000   2.0000000   2.0000000
            7           8           9          10          11          12
    1   2.0000000   2.0000000   2.0000000   2.0000000   2.0000000   2.0000000
           13          14          15          16          17          18
    1   2.0000000   2.0000000   2.0000000   2.0000000   2.0000000   2.0000000
           19          20          21          22          23          24
    1   2.0000000   2.0000000   2.0000000   1.9999995   1.9999990   1.9999987
           25          26          27          28          29          30
    1   1.9999979   1.9999966   1.9999952   1.9999951   1.9999916   1.9999912
           31          32          33          34          35          36
    1   1.9999892   1.9999889   1.9999775   1.9999722   1.9999681   1.9999611
           37          38          39          40          41          42
    1   1.9999327   1.9999234   1.9998257   1.9993756   1.9953707   1.9937416
           43          44          45          46          47          48
    1   1.9932474   1.9730582   1.9629459   1.9575484   1.9571978   1.8895827
           49          50          51          52          53          54
    1   0.1207842   0.0465536   0.0462874   0.0455163   0.0121684   0.0035042
           55          56          57          58          59          60
    1   0.0015329   0.0010051   0.0002939   0.0002434   0.0002324   0.0000802
           61          62          63          64          65
    1   0.0000614   0.0000547   0.0000470   0.0000168   0.0000165
  
*** Unpaired Electrons
 Yamaguchi Nd:         1.07
 Head-Gordon Nu:       0.56
 Head-Gordon Nu_nl:    0.14
  
**************************************************
 RAS-CI total energy for state   2:   -573.164977203795
  Excitation energy (eV) =  1.349338010202
  State symmetry: A     (C2       )
  <S^2>      :  2.0000
  Dipole Moment:   -0.0000 X    -0.0000 Y     0.5094 Z
  Trans. Moment:    0.0000 X    -0.0000 Y     0.0000 Z
  Strength   :  0.000000
  Natural transition orbitals ( 1 -> 2 ):
   e-/hole pair  1:  ampl =  0.882669 ( 77.9%)   [11 : 12]
   e-/hole pair  2:  ampl =  0.083989 (  0.7%)   [10 : 13]
   Sum of square amplitudes: 0.79

 NATURAL OCCUPATION NUMBERS (higher than 1.0E-05)
            1           2           3           4           5           6
    1   2.0000000   2.0000000   2.0000000   2.0000000   2.0000000   2.0000000
            7           8           9          10          11          12
    1   2.0000000   2.0000000   2.0000000   2.0000000   2.0000000   2.0000000
           13          14          15          16          17          18
    1   2.0000000   2.0000000   2.0000000   2.0000000   2.0000000   2.0000000
           19          20          21          22          23          24
    1   2.0000000   2.0000000   2.0000000   1.9999991   1.9999972   1.9999963
           25          26          27          28          29          30
    1   1.9999950   1.9999936   1.9999925   1.9999905   1.9999899   1.9999830
           31          32          33          34          35          36
    1   1.9999819   1.9999814   1.9999554   1.9999495   1.9999413   1.9999386
           37          38          39          40          41          42
    1   1.9999294   1.9999188   1.9997498   1.9997231   1.9990106   1.9919416
           43          44          45          46          47          48
    1   1.9903284   1.9574583   1.9507833   1.9505652   1.9486928   1.0044401
           49          50          51          52          53          54
    1   0.9990597   0.0613963   0.0535352   0.0526521   0.0308007   0.0066252
           55          56          57          58          59          60
    1   0.0018700   0.0005625   0.0005116   0.0002984   0.0001237   0.0000959
           61          62          63          64          65
    1   0.0000933   0.0000384   0.0000346   0.0000202   0.0000190
Natural Orbitals stored in FCHK

  Amplitudes : 
  
 | HOLE  | ALPHA       | BETA        | PART  |    AMPLITUDE 
--------------------------------------------------
 |       | 11111110000 | 11111101000 |       |    -6.6266000519990E-01
 |       | 11111101000 | 11111110000 |       |     6.6266000516777E-01
--------------------------------------------------
*** Contributions RASCI wfn    Active:  95.19
                                 Hole:   0.25
                                 Part:   4.56

      Mulliken population analysis 
 ---------------------------------------------------
   Atom    Charge (a.u.)   Spin (a.u.)  
 ---------------------------------------------------
   1  C    0.280883       -0.000000 
   2  O   -0.225999        0.000000 
   3  C    0.181099        0.000000 
   4  C    0.181369        0.000000 
   5  C   -0.325069       -0.000000 
   6  C   -0.224332       -0.000000 
   7  C   -0.109584        0.000000 
   8  C   -0.082765        0.000000 
   9  C   -0.143402       -0.000000 
  10  H    0.152677        0.000000 
  11  H    0.142489        0.000000 
  12  H    0.127237        0.000000 
  13  H    0.126363        0.000000 
  14  H    0.127589       -0.000000 
  15  C   -0.324887       -0.000000 
  16  C   -0.224126       -0.000000 
  17  C   -0.082979        0.000000 
  18  C   -0.109727        0.000000 
  19  C   -0.143206       -0.000000 
  20  H    0.152692        0.000000 
  21  H    0.127232        0.000000 
  22  H    0.142487        0.000000 
  23  H    0.126360        0.000000 
  24  H    0.127601       -0.000000 
 ---------------------------------------------------
   Sum:    0.000000       -0.000000 
 ---------------------------------------------------
 
  
 NATURAL OCCUPATION NUMBERS (higher than 1.0E-05)
            1           2           3           4           5           6
    1   2.0000000   2.0000000   2.0000000   2.0000000   2.0000000   2.0000000
            7           8           9          10          11          12
    1   2.0000000   2.0000000   2.0000000   2.0000000   2.0000000   2.0000000
           13          14          15          16          17          18
    1   2.0000000   2.0000000   2.0000000   2.0000000   2.0000000   2.0000000
           19          20          21          22          23          24
    1   2.0000000   2.0000000   2.0000000   1.9999991   1.9999972   1.9999963
           25          26          27          28          29          30
    1   1.9999950   1.9999936   1.9999925   1.9999905   1.9999899   1.9999830
           31          32          33          34          35          36
    1   1.9999819   1.9999814   1.9999554   1.9999495   1.9999413   1.9999386
           37          38          39          40          41          42
    1   1.9999294   1.9999188   1.9997498   1.9997231   1.9990106   1.9919416
           43          44          45          46          47          48
    1   1.9903284   1.9574583   1.9507833   1.9505652   1.9486928   1.0044401
           49          50          51          52          53          54
    1   0.9990597   0.0613963   0.0535352   0.0526521   0.0308007   0.0066252
           55          56          57          58          59          60
    1   0.0018700   0.0005625   0.0005116   0.0002984   0.0001237   0.0000959
           61          62          63          64          65
    1   0.0000933   0.0000384   0.0000346   0.0000202   0.0000190
  
*** Unpaired Electrons
 Yamaguchi Nd:         2.82
 Head-Gordon Nu:       2.42
 Head-Gordon Nu_nl:    2.08
  
**************************************************
 RAS-CI total energy for state   3:   -573.156113308228
  Excitation energy (eV) =  1.590536880408
  State symmetry: A     (C2       )
  <S^2>      :  0.0000
  Dipole Moment:   -0.0000 X    -0.0000 Y     0.5718 Z
  Trans. Moment:   -0.0000 X     0.0000 Y    -0.1104 Z
  Strength   :  0.000475
  Natural transition orbitals ( 1 -> 3 ):
   e-/hole pair  1:  ampl =  0.858170 ( 73.6%)   [11 : 12]
   e-/hole pair  2:  ampl =  0.046944 (  0.2%)   [10 : 13]
   Sum of square amplitudes: 0.74

 NATURAL OCCUPATION NUMBERS (higher than 1.0E-05)
            1           2           3           4           5           6
    1   2.0000000   2.0000000   2.0000000   2.0000000   2.0000000   2.0000000
            7           8           9          10          11          12
    1   2.0000000   2.0000000   2.0000000   2.0000000   2.0000000   2.0000000
           13          14          15          16          17          18
    1   2.0000000   2.0000000   2.0000000   2.0000000   2.0000000   2.0000000
           19          20          21          22          23          24
    1   2.0000000   2.0000000   2.0000000   1.9999991   1.9999968   1.9999959
           25          26          27          28          29          30
    1   1.9999951   1.9999936   1.9999922   1.9999906   1.9999871   1.9999836
           31          32          33          34          35          36
    1   1.9999787   1.9999679   1.9999568   1.9999428   1.9999395   1.9999358
           37          38          39          40          41          42
    1   1.9999199   1.9998865   1.9998364   1.9996376   1.9983849   1.9921896
           43          44          45          46          47          48
    1   1.9903180   1.9586773   1.9510501   1.9508025   1.9479499   1.1234963
           49          50          51          52          53          54
    1   0.8804191   0.0618139   0.0532046   0.0525205   0.0300959   0.0065457
           55          56          57          58          59          60
    1   0.0017977   0.0005586   0.0005010   0.0003055   0.0001305   0.0000937
           61          62          63          64          65
    1   0.0000549   0.0000438   0.0000330   0.0000213   0.0000186
Natural Orbitals stored in FCHK

  Amplitudes : 
  
 | HOLE  | ALPHA       | BETA        | PART  |    AMPLITUDE 
--------------------------------------------------
 |       | 11111110000 | 11111101000 |       |     6.5011916238583E-01
 |       | 11111101000 | 11111110000 |       |     6.5011916241830E-01
--------------------------------------------------
*** Contributions RASCI wfn    Active:  93.28
                                 Hole:   2.12
                                 Part:   4.61

      Mulliken population analysis 
 ---------------------------------------------------
   Atom    Charge (a.u.)   Spin (a.u.)  
 ---------------------------------------------------
   1  C    0.305727        0.000000 
   2  O   -0.248212       -0.000000 
   3  C    0.171321        0.000000 
   4  C    0.171591        0.000000 
   5  C   -0.321309        0.000000 
   6  C   -0.221468        0.000000 
   7  C   -0.109193        0.000000 
   8  C   -0.084257       -0.000000 
   9  C   -0.140927        0.000000 
  10  H    0.152855       -0.000000 
  11  H    0.142926       -0.000000 
  12  H    0.127194       -0.000000 
  13  H    0.126259       -0.000000 
  14  H    0.127582        0.000000 
  15  C   -0.321128        0.000000 
  16  C   -0.221260        0.000000 
  17  C   -0.084470       -0.000000 
  18  C   -0.109336        0.000000 
  19  C   -0.140730        0.000000 
  20  H    0.152870       -0.000000 
  21  H    0.127189       -0.000000 
  22  H    0.142923       -0.000000 
  23  H    0.126257       -0.000000 
  24  H    0.127594        0.000000 
 ---------------------------------------------------
   Sum:    0.000000       -0.000000 
 ---------------------------------------------------
 
  
 NATURAL OCCUPATION NUMBERS (higher than 1.0E-05)
            1           2           3           4           5           6
    1   2.0000000   2.0000000   2.0000000   2.0000000   2.0000000   2.0000000
            7           8           9          10          11          12
    1   2.0000000   2.0000000   2.0000000   2.0000000   2.0000000   2.0000000
           13          14          15          16          17          18
    1   2.0000000   2.0000000   2.0000000   2.0000000   2.0000000   2.0000000
           19          20          21          22          23          24
    1   2.0000000   2.0000000   2.0000000   1.9999991   1.9999968   1.9999959
           25          26          27          28          29          30
    1   1.9999951   1.9999936   1.9999922   1.9999906   1.9999871   1.9999836
           31          32          33          34          35          36
    1   1.9999787   1.9999679   1.9999568   1.9999428   1.9999395   1.9999358
           37          38          39          40          41          42
    1   1.9999199   1.9998865   1.9998364   1.9996376   1.9983849   1.9921896
           43          44          45          46          47          48
    1   1.9903180   1.9586773   1.9510501   1.9508025   1.9479499   1.1234963
           49          50          51          52          53          54
    1   0.8804191   0.0618139   0.0532046   0.0525205   0.0300959   0.0065457
           55          56          57          58          59          60
    1   0.0017977   0.0005586   0.0005010   0.0003055   0.0001305   0.0000937
           61          62          63          64          65
    1   0.0000549   0.0000438   0.0000330   0.0000213   0.0000186
  
*** Unpaired Electrons
 Yamaguchi Nd:         2.79
 Head-Gordon Nu:       2.18
 Head-Gordon Nu_nl:    2.02
  
**************************************************
 RAS-CI total energy for state   4:   -573.100765134948
  Excitation energy (eV) =  3.096637303336
  State symmetry: A     (C2       )
  <S^2>      :  2.0000
  Dipole Moment:   -0.0000 X    -0.0000 Y     0.8935 Z
  Trans. Moment:   -0.0000 X     0.0000 Y    -0.0000 Z
  Strength   :  0.000000
  Natural transition orbitals ( 1 -> 4 ):
   e-/hole pair  1:  ampl =  0.930931 ( 86.7%)   [11 : 12]
   e-/hole pair  2:  ampl =  0.200964 (  4.0%)   [10 : 13]
   Sum of square amplitudes: 0.94

 NATURAL OCCUPATION NUMBERS (higher than 1.0E-05)
            1           2           3           4           5           6
    1   2.0000000   2.0000000   2.0000000   2.0000000   2.0000000   2.0000000
            7           8           9          10          11          12
    1   2.0000000   2.0000000   2.0000000   2.0000000   2.0000000   2.0000000
           13          14          15          16          17          18
    1   2.0000000   2.0000000   2.0000000   2.0000000   2.0000000   2.0000000
           19          20          21          22          23          24
    1   2.0000000   2.0000000   2.0000000   1.9999996   1.9999990   1.9999987
           25          26          27          28          29          30
    1   1.9999982   1.9999982   1.9999966   1.9999964   1.9999953   1.9999949
           31          32          33          34          35          36
    1   1.9999888   1.9999853   1.9999807   1.9999799   1.9999790   1.9999766
           37          38          39          40          41          42
    1   1.9999741   1.9999706   1.9998704   1.9997567   1.9967633   1.9938946
           43          44          45          46          47          48
    1   1.9934016   1.9733352   1.9596630   1.9585909   1.9487708   1.0354296
           49          50          51          52          53          54
    1   0.9777352   0.0567281   0.0465281   0.0461656   0.0093868   0.0019419
           55          56          57          58          59          60
    1   0.0009407   0.0005662   0.0002121   0.0001705   0.0001477   0.0000501
           61          62          63
    1   0.0000438   0.0000317   0.0000273
Natural Orbitals stored in FCHK

  Amplitudes : 
  
 | HOLE  | ALPHA       | BETA        | PART  |    AMPLITUDE 
--------------------------------------------------
 |       | 11111110000 | 11011111000 |       |     3.0809029182499E-01
 |       | 11111110000 | 10111111000 |       |     2.3614830410412E-01
 |       | 11011111000 | 11111110000 |       |    -3.0809029182494E-01
 |       | 10111111000 | 11111110000 |       |    -2.3614830410399E-01
 |  31   | 11111111000 | 11111110000 |       |     1.9763306636143E-01
 |  31   | 11111110000 | 11111111000 |       |    -1.9763306636145E-01
 |  34   | 11111111000 | 11111110000 |       |    -2.9909922050606E-01
 |  34   | 11111110000 | 11111111000 |       |     2.9909922050609E-01
 |  37   | 11111111000 | 11111110000 |       |    -3.8814535310047E-01
 |  37   | 11111110000 | 11111111000 |       |     3.8814535310052E-01
--------------------------------------------------
*** Contributions RASCI wfn    Active:  34.56
                                 Hole:  63.87
                                 Part:   1.57

      Mulliken population analysis 
 ---------------------------------------------------
   Atom    Charge (a.u.)   Spin (a.u.)  
 ---------------------------------------------------
   1  C    0.296870        0.000000 
   2  O   -0.325448        0.000000 
   3  C    0.183498        0.000000 
   4  C    0.183778        0.000000 
   5  C   -0.315025        0.000000 
   6  C   -0.196147       -0.000000 
   7  C   -0.113042       -0.000000 
   8  C   -0.085682        0.000000 
   9  C   -0.129403       -0.000000 
  10  H    0.153850       -0.000000 
  11  H    0.134906       -0.000000 
  12  H    0.127023        0.000000 
  13  H    0.126427        0.000000 
  14  H    0.127616       -0.000000 
  15  C   -0.314840        0.000000 
  16  C   -0.195933       -0.000000 
  17  C   -0.085898        0.000000 
  18  C   -0.113188       -0.000000 
  19  C   -0.129204       -0.000000 
  20  H    0.153864       -0.000000 
  21  H    0.127018        0.000000 
  22  H    0.134906       -0.000000 
  23  H    0.126425        0.000000 
  24  H    0.127628       -0.000000 
 ---------------------------------------------------
   Sum:    0.000000        0.000000 
 ---------------------------------------------------
 
  
 NATURAL OCCUPATION NUMBERS (higher than 1.0E-05)
            1           2           3           4           5           6
    1   2.0000000   2.0000000   2.0000000   2.0000000   2.0000000   2.0000000
            7           8           9          10          11          12
    1   2.0000000   2.0000000   2.0000000   2.0000000   2.0000000   2.0000000
           13          14          15          16          17          18
    1   2.0000000   2.0000000   2.0000000   2.0000000   2.0000000   2.0000000
           19          20          21          22          23          24
    1   2.0000000   2.0000000   2.0000000   1.9999996   1.9999990   1.9999987
           25          26          27          28          29          30
    1   1.9999982   1.9999982   1.9999966   1.9999964   1.9999953   1.9999949
           31          32          33          34          35          36
    1   1.9999888   1.9999853   1.9999807   1.9999799   1.9999790   1.9999766
           37          38          39          40          41          42
    1   1.9999741   1.9999706   1.9998704   1.9997567   1.9967633   1.9938946
           43          44          45          46          47          48
    1   1.9934016   1.9733352   1.9596630   1.9585909   1.9487708   1.0354296
           49          50          51          52          53          54
    1   0.9777352   0.0567281   0.0465281   0.0461656   0.0093868   0.0019419
           55          56          57          58          59          60
    1   0.0009407   0.0005662   0.0002121   0.0001705   0.0001477   0.0000501
           61          62          63
    1   0.0000438   0.0000317   0.0000273
  
*** Unpaired Electrons
 Yamaguchi Nd:         2.66
 Head-Gordon Nu:       2.28
 Head-Gordon Nu_nl:    2.05
  
**************************************************
 RAS-CI total energy for state   5:   -573.055619996880
  Excitation energy (eV) =  4.325099012362
  State symmetry: B     (C2       )
  <S^2>      :  2.0000
  Dipole Moment:   -0.0000 X    -0.0000 Y     0.5099 Z
  Trans. Moment:   -0.0000 X    -0.0000 Y    -0.0000 Z
  Strength   :  0.000000
  Natural transition orbitals ( 1 -> 5 ):
   e-/hole pair  1:  ampl =  0.582963 ( 34.0%)   [11 : 12]
   e-/hole pair  2:  ampl =  0.284800 (  8.1%)   [10 : 13]
   Sum of square amplitudes: 0.45

 NATURAL OCCUPATION NUMBERS (higher than 1.0E-05)
            1           2           3           4           5           6
    1   2.0000000   2.0000000   2.0000000   2.0000000   2.0000000   2.0000000
            7           8           9          10          11          12
    1   2.0000000   2.0000000   2.0000000   2.0000000   2.0000000   2.0000000
           13          14          15          16          17          18
    1   2.0000000   2.0000000   2.0000000   2.0000000   2.0000000   2.0000000
           19          20          21          22          23          24
    1   2.0000000   2.0000000   2.0000000   1.9999986   1.9999972   1.9999970
           25          26          27          28          29          30
    1   1.9999959   1.9999942   1.9999901   1.9999882   1.9999871   1.9999808
           31          32          33          34          35          36
    1   1.9999705   1.9999693   1.9999481   1.9999426   1.9999211   1.9999189
           37          38          39          40          41          42
    1   1.9998658   1.9996652   1.9993644   1.9984151   1.9878339   1.9833696
           43          44          45          46          47          48
    1   1.9806391   1.9375800   1.9346115   1.9081157   1.7063938   1.1002732
           49          50          51          52          53          54
    1   0.7071193   0.5453869   0.0700687   0.0678795   0.0548056   0.0130306
           55          56          57          58          59          60
    1   0.0034596   0.0008370   0.0004746   0.0003909   0.0003544   0.0001377
           61          62          63          64          65          66
    1   0.0001317   0.0000526   0.0000492   0.0000255   0.0000247   0.0000119
           67
    1   0.0000102
Natural Orbitals stored in FCHK

  Amplitudes : 
  
 | HOLE  | ALPHA       | BETA        | PART  |    AMPLITUDE 
--------------------------------------------------
 |       | 11111110000 | 11111100100 |       |     4.4698128197772E-01
 |       | 11111110000 | 11111011000 |       |     1.4358103682811E-01
 |       | 11111110000 | 11011110100 |       |    -1.4919485210848E-01
 |       | 11111110000 | 11011101100 |       |    -1.2973814952910E-01
 |       | 11111101000 | 11111011000 |       |     2.3258290813971E-01
 |       | 11111100100 | 11111110000 |       |    -4.4698128197467E-01
 |       | 11111100100 | 11011111000 |       |    -2.1334576134639E-01
 |       | 11111011000 | 11111110000 |       |    -1.4358103682837E-01
 |       | 11111011000 | 11111101000 |       |    -2.3258290814117E-01
 |       | 11011111000 | 11111100100 |       |     2.1334576134782E-01
 |       | 11011110100 | 11111110000 |       |     1.4919485210817E-01
 |       | 11011101100 | 11111110000 |       |     1.2973814952815E-01
 |       | 11111100000 | 11111011000 |  55   |    -1.4903804291880E-01
 |       | 11111011000 | 11111100000 |  55   |     1.4903804291974E-01
--------------------------------------------------
*** Contributions RASCI wfn    Active:  83.51
                                 Hole:   4.48
                                 Part:  12.01

      Mulliken population analysis 
 ---------------------------------------------------
   Atom    Charge (a.u.)   Spin (a.u.)  
 ---------------------------------------------------
   1  C    0.394119        0.000000 
   2  O   -0.264475        0.000000 
   3  C    0.127657       -0.000000 
   4  C    0.127928       -0.000000 
   5  C   -0.314311       -0.000000 
   6  C   -0.195650       -0.000000 
   7  C   -0.129755       -0.000000 
   8  C   -0.090072        0.000000 
   9  C   -0.133671       -0.000000 
  10  H    0.152747       -0.000000 
  11  H    0.137631        0.000000 
  12  H    0.127092        0.000000 
  13  H    0.126147       -0.000000 
  14  H    0.127104       -0.000000 
  15  C   -0.314129       -0.000000 
  16  C   -0.195444       -0.000000 
  17  C   -0.090287        0.000000 
  18  C   -0.129898       -0.000000 
  19  C   -0.133475       -0.000000 
  20  H    0.152762       -0.000000 
  21  H    0.127086        0.000000 
  22  H    0.137631        0.000000 
  23  H    0.126145       -0.000000 
  24  H    0.127116       -0.000000 
 ---------------------------------------------------
   Sum:    0.000000       -0.000000 
 ---------------------------------------------------
 
  
 NATURAL OCCUPATION NUMBERS (higher than 1.0E-05)
            1           2           3           4           5           6
    1   2.0000000   2.0000000   2.0000000   2.0000000   2.0000000   2.0000000
            7           8           9          10          11          12
    1   2.0000000   2.0000000   2.0000000   2.0000000   2.0000000   2.0000000
           13          14          15          16          17          18
    1   2.0000000   2.0000000   2.0000000   2.0000000   2.0000000   2.0000000
           19          20          21          22          23          24
    1   2.0000000   2.0000000   2.0000000   1.9999986   1.9999972   1.9999970
           25          26          27          28          29          30
    1   1.9999959   1.9999942   1.9999901   1.9999882   1.9999871   1.9999808
           31          32          33          34          35          36
    1   1.9999705   1.9999693   1.9999481   1.9999426   1.9999211   1.9999189
           37          38          39          40          41          42
    1   1.9998658   1.9996652   1.9993644   1.9984151   1.9878339   1.9833696
           43          44          45          46          47          48
    1   1.9806391   1.9375800   1.9346115   1.9081157   1.7063938   1.1002732
           49          50          51          52          53          54
    1   0.7071193   0.5453869   0.0700687   0.0678795   0.0548056   0.0130306
           55          56          57          58          59          60
    1   0.0034596   0.0008370   0.0004746   0.0003909   0.0003544   0.0001377
           61          62          63          64          65          66
    1   0.0001317   0.0000526   0.0000492   0.0000255   0.0000247   0.0000119
           67
    1   0.0000102
  
*** Unpaired Electrons
 Yamaguchi Nd:         4.13
 Head-Gordon Nu:       2.93
 Head-Gordon Nu_nl:    2.81
  
**************************************************
 RAS-CI total energy for state   6:   -573.051327202102
  Excitation energy (eV) =  4.441911901518
  State symmetry: B     (C2       )
  <S^2>      :  0.0000
  Dipole Moment:   -0.0000 X    -0.0000 Y     0.2951 Z
  Trans. Moment:    0.2300 X    -0.0041 Y    -0.0000 Z
  Strength   :  0.005757
  Natural transition orbitals ( 1 -> 6 ):
   e-/hole pair  1:  ampl =  0.536080 ( 28.7%)   [11 : 12]
   e-/hole pair  2:  ampl =  0.121431 (  1.5%)   [10 : 13]
   Sum of square amplitudes: 0.30

 NATURAL OCCUPATION NUMBERS (higher than 1.0E-05)
            1           2           3           4           5           6
    1   2.0000000   2.0000000   2.0000000   2.0000000   2.0000000   2.0000000
            7           8           9          10          11          12
    1   2.0000000   2.0000000   2.0000000   2.0000000   2.0000000   2.0000000
           13          14          15          16          17          18
    1   2.0000000   2.0000000   2.0000000   2.0000000   2.0000000   2.0000000
           19          20          21          22          23          24
    1   2.0000000   2.0000000   2.0000000   1.9999985   1.9999965   1.9999958
           25          26          27          28          29          30
    1   1.9999950   1.9999941   1.9999903   1.9999898   1.9999876   1.9999791
           31          32          33          34          35          36
    1   1.9999677   1.9999502   1.9999442   1.9999360   1.9999243   1.9999133
           37          38          39          40          41          42
    1   1.9999123   1.9997671   1.9997416   1.9995332   1.9972902   1.9833922
           43          44          45          46          47          48
    1   1.9832621   1.9433771   1.9419824   1.9079605   1.7283021   1.0071811
           49          50          51          52          53          54
    1   0.7433753   0.5608077   0.0663516   0.0627688   0.0561067   0.0137417
           55          56          57          58          59          60
    1   0.0035610   0.0006057   0.0004915   0.0003731   0.0001592   0.0001390
           61          62          63          64          65
    1   0.0000832   0.0000452   0.0000416   0.0000231   0.0000205
Natural Orbitals stored in FCHK

  Amplitudes : 
  
 | HOLE  | ALPHA       | BETA        | PART  |    AMPLITUDE 
--------------------------------------------------
 |       | 11111110000 | 11111100100 |       |    -4.8052363499544E-01
 |       | 11111110000 | 11011101100 |       |     1.5178453242509E-01
 |       | 11111101000 | 11111011000 |       |     2.5276165920942E-01
 |       | 11111100100 | 11111110000 |       |    -4.8052363499784E-01
 |       | 11111100100 | 11011111000 |       |    -2.3746926998174E-01
 |       | 11111011000 | 11111101000 |       |     2.5276165920788E-01
 |       | 11011111000 | 11111100100 |       |    -2.3746926998051E-01
 |       | 11011101100 | 11111110000 |       |     1.5178453242576E-01
 |       | 11111100000 | 11111011000 |  55   |    -1.6062594015986E-01
 |       | 11111011000 | 11111100000 |  55   |    -1.6062594015893E-01
--------------------------------------------------
*** Contributions RASCI wfn    Active:  86.08
                                 Hole:   1.12
                                 Part:  12.80

      Mulliken population analysis 
 ---------------------------------------------------
   Atom    Charge (a.u.)   Spin (a.u.)  
 ---------------------------------------------------
   1  C    0.382549       -0.000000 
   2  O   -0.211431       -0.000000 
   3  C    0.113650        0.000000 
   4  C    0.113915        0.000000 
   5  C   -0.314319        0.000000 
   6  C   -0.199122        0.000000 
   7  C   -0.134409        0.000000 
   8  C   -0.091868        0.000000 
   9  C   -0.135443        0.000000 
  10  H    0.152957        0.000000 
  11  H    0.142586       -0.000000 
  12  H    0.127162        0.000000 
  13  H    0.125882        0.000000 
  14  H    0.127113        0.000000 
  15  C   -0.314140        0.000000 
  16  C   -0.198919        0.000000 
  17  C   -0.092081        0.000000 
  18  C   -0.134551        0.000000 
  19  C   -0.135248        0.000000 
  20  H    0.152972        0.000000 
  21  H    0.127157        0.000000 
  22  H    0.142584       -0.000000 
  23  H    0.125880        0.000000 
  24  H    0.127125        0.000000 
 ---------------------------------------------------
   Sum:    0.000000       -0.000000 
 ---------------------------------------------------
 
  
 NATURAL OCCUPATION NUMBERS (higher than 1.0E-05)
            1           2           3           4           5           6
    1   2.0000000   2.0000000   2.0000000   2.0000000   2.0000000   2.0000000
            7           8           9          10          11          12
    1   2.0000000   2.0000000   2.0000000   2.0000000   2.0000000   2.0000000
           13          14          15          16          17          18
    1   2.0000000   2.0000000   2.0000000   2.0000000   2.0000000   2.0000000
           19          20          21          22          23          24
    1   2.0000000   2.0000000   2.0000000   1.9999985   1.9999965   1.9999958
           25          26          27          28          29          30
    1   1.9999950   1.9999941   1.9999903   1.9999898   1.9999876   1.9999791
           31          32          33          34          35          36
    1   1.9999677   1.9999502   1.9999442   1.9999360   1.9999243   1.9999133
           37          38          39          40          41          42
    1   1.9999123   1.9997671   1.9997416   1.9995332   1.9972902   1.9833922
           43          44          45          46          47          48
    1   1.9832621   1.9433771   1.9419824   1.9079605   1.7283021   1.0071811
           49          50          51          52          53          54
    1   0.7433753   0.5608077   0.0663516   0.0627688   0.0561067   0.0137417
           55          56          57          58          59          60
    1   0.0035610   0.0006057   0.0004915   0.0003731   0.0001592   0.0001390
           61          62          63          64          65
    1   0.0000832   0.0000452   0.0000416   0.0000231   0.0000205
  
*** Unpaired Electrons
 Yamaguchi Nd:         4.08
 Head-Gordon Nu:       3.02
 Head-Gordon Nu_nl:    2.85
  
**************************************************
 RAS-CI total energy for state   7:   -573.036104928231
  Excitation energy (eV) =  4.856131048349
  State symmetry: B     (C2       )
  <S^2>      :  2.0000
  Dipole Moment:   -0.0000 X    -0.0000 Y     0.8002 Z
  Trans. Moment:   -0.0000 X    -0.0000 Y    -0.0000 Z
  Strength   :  0.000000
  Natural transition orbitals ( 1 -> 7 ):
   e-/hole pair  1:  ampl =  0.591558 ( 35.0%)   [11 : 12]
   e-/hole pair  2:  ampl =  0.506894 ( 25.7%)   [10 : 13]
   Sum of square amplitudes: 0.70

 NATURAL OCCUPATION NUMBERS (higher than 1.0E-05)
            1           2           3           4           5           6
    1   2.0000000   2.0000000   2.0000000   2.0000000   2.0000000   2.0000000
            7           8           9          10          11          12
    1   2.0000000   2.0000000   2.0000000   2.0000000   2.0000000   2.0000000
           13          14          15          16          17          18
    1   2.0000000   2.0000000   2.0000000   2.0000000   2.0000000   2.0000000
           19          20          21          22          23          24
    1   2.0000000   2.0000000   2.0000000   1.9999986   1.9999968   1.9999967
           25          26          27          28          29          30
    1   1.9999944   1.9999942   1.9999906   1.9999871   1.9999851   1.9999831
           31          32          33          34          35          36
    1   1.9999725   1.9999604   1.9999455   1.9999397   1.9999165   1.9998750
           37          38          39          40          41          42
    1   1.9998548   1.9997829   1.9992456   1.9982770   1.9848887   1.9811985
           43          44          45          46          47          48
    1   1.9580787   1.8989170   1.8606594   1.7806271   1.6817818   1.4528756
           49          50          51          52          53          54
    1   0.5238843   0.4458201   0.2022182   0.1855553   0.0301765   0.0097886
           55          56          57          58          59          60
    1   0.0027756   0.0015334   0.0008625   0.0005812   0.0005059   0.0001890
           61          62          63          64          65          66
    1   0.0001317   0.0000677   0.0000674   0.0000340   0.0000287   0.0000146
           67          68
    1   0.0000113   0.0000104
Natural Orbitals stored in FCHK

  Amplitudes : 
  
 | HOLE  | ALPHA       | BETA        | PART  |    AMPLITUDE 
--------------------------------------------------
 |       | 11111110000 | 11111100100 |       |    -1.7173700345160E-01
 |       | 11111110000 | 11111100010 |       |     2.9229033595172E-01
 |       | 11111110000 | 11111011000 |       |     1.4194376993132E-01
 |       | 11111110000 | 11111010001 |       |     1.3640254783189E-01
 |       | 11111110000 | 11110110010 |       |    -2.2317659334574E-01
 |       | 11111110000 | 11101110001 |       |    -1.8502860430032E-01
 |       | 11111110000 | 11011110100 |       |    -1.0741361518785E-01
 |       | 11111110000 | 11011110010 |       |    -1.4911611492268E-01
 |       | 11111101000 | 11101111000 |       |    -1.0887842382891E-01
 |       | 11111100100 | 11111110000 |       |     1.7173700345215E-01
 |       | 11111100010 | 11111110000 |       |    -2.9229033595413E-01
 |       | 11111011000 | 11111110000 |       |    -1.4194376993148E-01
 |       | 11111010001 | 11111110000 |       |    -1.3640254783223E-01
 |       | 11110110010 | 11111110000 |       |     2.2317659334579E-01
 |       | 11101111000 | 11111101000 |       |     1.0887842382793E-01
 |       | 11101110001 | 11111110000 |       |     1.8502860430031E-01
 |       | 11011110100 | 11111110000 |       |     1.0741361518791E-01
 |       | 11011110010 | 11111110000 |       |     1.4911611492313E-01
--------------------------------------------------
*** Contributions RASCI wfn    Active:  77.77
                                 Hole:  16.24
                                 Part:   5.99

      Mulliken population analysis 
 ---------------------------------------------------
   Atom    Charge (a.u.)   Spin (a.u.)  
 ---------------------------------------------------
   1  C    0.396992        0.000000 
   2  O   -0.347252       -0.000000 
   3  C    0.169048       -0.000000 
   4  C    0.169330       -0.000000 
   5  C   -0.335837        0.000000 
   6  C   -0.169457        0.000000 
   7  C   -0.151611        0.000000 
   8  C   -0.086526        0.000000 
   9  C   -0.110670       -0.000000 
  10  H    0.150381       -0.000000 
  11  H    0.129391        0.000000 
  12  H    0.126630        0.000000 
  13  H    0.126137        0.000000 
  14  H    0.127373       -0.000000 
  15  C   -0.335647        0.000000 
  16  C   -0.169240        0.000000 
  17  C   -0.086746        0.000000 
  18  C   -0.151761        0.000000 
  19  C   -0.110468       -0.000000 
  20  H    0.150395       -0.000000 
  21  H    0.126624        0.000000 
  22  H    0.129393        0.000000 
  23  H    0.126134        0.000000 
  24  H    0.127386       -0.000000 
 ---------------------------------------------------
   Sum:    0.000000       -0.000000 
 ---------------------------------------------------
 
  
 NATURAL OCCUPATION NUMBERS (higher than 1.0E-05)
            1           2           3           4           5           6
    1   2.0000000   2.0000000   2.0000000   2.0000000   2.0000000   2.0000000
            7           8           9          10          11          12
    1   2.0000000   2.0000000   2.0000000   2.0000000   2.0000000   2.0000000
           13          14          15          16          17          18
    1   2.0000000   2.0000000   2.0000000   2.0000000   2.0000000   2.0000000
           19          20          21          22          23          24
    1   2.0000000   2.0000000   2.0000000   1.9999986   1.9999968   1.9999967
           25          26          27          28          29          30
    1   1.9999944   1.9999942   1.9999906   1.9999871   1.9999851   1.9999831
           31          32          33          34          35          36
    1   1.9999725   1.9999604   1.9999455   1.9999397   1.9999165   1.9998750
           37          38          39          40          41          42
    1   1.9998548   1.9997829   1.9992456   1.9982770   1.9848887   1.9811985
           43          44          45          46          47          48
    1   1.9580787   1.8989170   1.8606594   1.7806271   1.6817818   1.4528756
           49          50          51          52          53          54
    1   0.5238843   0.4458201   0.2022182   0.1855553   0.0301765   0.0097886
           55          56          57          58          59          60
    1   0.0027756   0.0015334   0.0008625   0.0005812   0.0005059   0.0001890
           61          62          63          64          65          66
    1   0.0001317   0.0000677   0.0000674   0.0000340   0.0000287   0.0000146
           67          68
    1   0.0000113   0.0000104
  
*** Unpaired Electrons
 Yamaguchi Nd:         4.59
 Head-Gordon Nu:       2.81
 Head-Gordon Nu_nl:    2.51
  
**************************************************
 RAS-CI total energy for state   8:   -573.031061032620
  Excitation energy (eV) =  4.993382431077
  State symmetry: A     (C2       )
  <S^2>      :  2.0000
  Dipole Moment:   -0.0000 X    -0.0000 Y     0.8130 Z
  Trans. Moment:   -0.0000 X    -0.0000 Y     0.0000 Z
  Strength   :  0.000000
  Natural transition orbitals ( 1 -> 8 ):
   e-/hole pair  1:  ampl =  0.635602 ( 40.4%)   [11 : 12]
   e-/hole pair  2:  ampl =  0.525416 ( 27.6%)   [10 : 13]
   Sum of square amplitudes: 0.75

 NATURAL OCCUPATION NUMBERS (higher than 1.0E-05)
            1           2           3           4           5           6
    1   2.0000000   2.0000000   2.0000000   2.0000000   2.0000000   2.0000000
            7           8           9          10          11          12
    1   2.0000000   2.0000000   2.0000000   2.0000000   2.0000000   2.0000000
           13          14          15          16          17          18
    1   2.0000000   2.0000000   2.0000000   2.0000000   2.0000000   2.0000000
           19          20          21          22          23          24
    1   2.0000000   2.0000000   2.0000000   1.9999989   1.9999980   1.9999975
           25          26          27          28          29          30
    1   1.9999956   1.9999948   1.9999915   1.9999885   1.9999880   1.9999848
           31          32          33          34          35          36
    1   1.9999746   1.9999704   1.9999572   1.9999486   1.9999305   1.9999043
           37          38          39          40          41          42
    1   1.9998658   1.9997943   1.9993718   1.9993219   1.9839674   1.9804408
           43          44          45          46          47          48
    1   1.9625984   1.9341235   1.9189080   1.7698243   1.6593247   1.4136322
           49          50          51          52          53          54
    1   0.5843612   0.3548782   0.3286986   0.0699996   0.0257152   0.0091123
           55          56          57          58          59          60
    1   0.0026876   0.0015003   0.0007242   0.0005433   0.0004241   0.0001775
           61          62          63          64          65          66
    1   0.0001223   0.0000685   0.0000651   0.0000411   0.0000250   0.0000184
           67
    1   0.0000105
Natural Orbitals stored in FCHK

  Amplitudes : 
  
 | HOLE  | ALPHA       | BETA        | PART  |    AMPLITUDE 
--------------------------------------------------
 |       | 11111110000 | 11111100001 |       |     2.9912478825170E-01
 |       | 11111110000 | 11111010010 |       |     1.6771904067082E-01
 |       | 11111110000 | 11110111000 |       |    -1.3442068381453E-01
 |       | 11111110000 | 11110110001 |       |    -2.3766410167714E-01
 |       | 11111110000 | 11101110010 |       |    -2.2875689964350E-01
 |       | 11111110000 | 11011110001 |       |    -1.4212944571166E-01
 |       | 11111101000 | 11110111000 |       |    -1.2124863158446E-01
 |       | 11111100001 | 11111110000 |       |    -2.9912478818115E-01
 |       | 11111100001 | 11011111000 |       |    -1.0110138091638E-01
 |       | 11111010010 | 11111110000 |       |    -1.6771904065717E-01
 |       | 11110111000 | 11111110000 |       |     1.3442068382751E-01
 |       | 11110111000 | 11111101000 |       |     1.2124863161286E-01
 |       | 11110110001 | 11111110000 |       |     2.3766410167406E-01
 |       | 11101110010 | 11111110000 |       |     2.2875689964393E-01
 |       | 11011111000 | 11111100001 |       |     1.0110138094368E-01
 |       | 11011110001 | 11111110000 |       |     1.4212944569225E-01
--------------------------------------------------
*** Contributions RASCI wfn    Active:  75.69
                                 Hole:  18.54
                                 Part:   5.77

      Mulliken population analysis 
 ---------------------------------------------------
   Atom    Charge (a.u.)   Spin (a.u.)  
 ---------------------------------------------------
   1  C    0.404138       -0.000000 
   2  O   -0.354516        0.000000 
   3  C    0.166508        0.000000 
   4  C    0.166787        0.000000 
   5  C   -0.323832       -0.000000 
   6  C   -0.173734       -0.000000 
   7  C   -0.139547       -0.000000 
   8  C   -0.085589       -0.000000 
   9  C   -0.119913        0.000000 
  10  H    0.143214       -0.000000 
  11  H    0.128122        0.000000 
  12  H    0.126544       -0.000000 
  13  H    0.126395       -0.000000 
  14  H    0.126754       -0.000000 
  15  C   -0.323645       -0.000000 
  16  C   -0.173519       -0.000000 
  17  C   -0.085808       -0.000000 
  18  C   -0.139696       -0.000000 
  19  C   -0.119711        0.000000 
  20  H    0.143228       -0.000000 
  21  H    0.126538       -0.000000 
  22  H    0.128123        0.000000 
  23  H    0.126392       -0.000000 
  24  H    0.126767       -0.000000 
 ---------------------------------------------------
   Sum:    0.000000       -0.000000 
 ---------------------------------------------------
 
  
 NATURAL OCCUPATION NUMBERS (higher than 1.0E-05)
            1           2           3           4           5           6
    1   2.0000000   2.0000000   2.0000000   2.0000000   2.0000000   2.0000000
            7           8           9          10          11          12
    1   2.0000000   2.0000000   2.0000000   2.0000000   2.0000000   2.0000000
           13          14          15          16          17          18
    1   2.0000000   2.0000000   2.0000000   2.0000000   2.0000000   2.0000000
           19          20          21          22          23          24
    1   2.0000000   2.0000000   2.0000000   1.9999989   1.9999980   1.9999975
           25          26          27          28          29          30
    1   1.9999956   1.9999948   1.9999915   1.9999885   1.9999880   1.9999848
           31          32          33          34          35          36
    1   1.9999746   1.9999704   1.9999572   1.9999486   1.9999305   1.9999043
           37          38          39          40          41          42
    1   1.9998658   1.9997943   1.9993718   1.9993219   1.9839674   1.9804408
           43          44          45          46          47          48
    1   1.9625984   1.9341235   1.9189080   1.7698243   1.6593247   1.4136322
           49          50          51          52          53          54
    1   0.5843612   0.3548782   0.3286986   0.0699996   0.0257152   0.0091123
           55          56          57          58          59          60
    1   0.0026876   0.0015003   0.0007242   0.0005433   0.0004241   0.0001775
           61          62          63          64          65          66
    1   0.0001223   0.0000685   0.0000651   0.0000411   0.0000250   0.0000184
           67
    1   0.0000105
  
*** Unpaired Electrons
 Yamaguchi Nd:         4.41
 Head-Gordon Nu:       2.76
 Head-Gordon Nu_nl:    2.57
  
**************************************************
 RAS-CI total energy for state   9:   -573.029438363209
  Excitation energy (eV) =  5.037537512281
  State symmetry: B     (C2       )
  <S^2>      :  0.0000
  Dipole Moment:    0.0000 X    -0.0000 Y     0.2956 Z
  Trans. Moment:    0.0098 X     0.0790 Y     0.0000 Z
  Strength   :  0.000781
  Natural transition orbitals ( 1 -> 9 ):
   e-/hole pair  1:  ampl =  0.568701 ( 32.3%)   [11 : 12]
   e-/hole pair  2:  ampl =  0.179639 (  3.2%)   [10 : 13]
   Sum of square amplitudes: 0.38

 NATURAL OCCUPATION NUMBERS (higher than 1.0E-05)
            1           2           3           4           5           6
    1   2.0000000   2.0000000   2.0000000   2.0000000   2.0000000   2.0000000
            7           8           9          10          11          12
    1   2.0000000   2.0000000   2.0000000   2.0000000   2.0000000   2.0000000
           13          14          15          16          17          18
    1   2.0000000   2.0000000   2.0000000   2.0000000   2.0000000   2.0000000
           19          20          21          22          23          24
    1   2.0000000   2.0000000   2.0000000   1.9999982   1.9999957   1.9999956
           25          26          27          28          29          30
    1   1.9999931   1.9999926   1.9999878   1.9999838   1.9999790   1.9999748
           31          32          33          34          35          36
    1   1.9999609   1.9999436   1.9999210   1.9999203   1.9998921   1.9998535
           37          38          39          40          41          42
    1   1.9998187   1.9995774   1.9994142   1.9993232   1.9904158   1.9793019
           43          44          45          46          47          48
    1   1.9773792   1.9259196   1.9014498   1.8711025   1.8281190   1.0493575
           49          50          51          52          53          54
    1   0.7327403   0.4463301   0.1397936   0.1093702   0.0329737   0.0113800
           55          56          57          58          59          60
    1   0.0031329   0.0012070   0.0010385   0.0006201   0.0002989   0.0001596
           61          62          63          64          65          66
    1   0.0001470   0.0000647   0.0000536   0.0000322   0.0000296   0.0000150
           67          68
    1   0.0000108   0.0000104
Natural Orbitals stored in FCHK

  Amplitudes : 
  
 | HOLE  | ALPHA       | BETA        | PART  |    AMPLITUDE 
--------------------------------------------------
 |       | 11111110000 | 11111100010 |       |     4.8152024533690E-01
 |       | 11111110000 | 11111001001 |       |     1.1316602225009E-01
 |       | 11111110000 | 11011101010 |       |    -1.5933817804478E-01
 |       | 11111101000 | 11101111000 |       |     1.6750140325875E-01
 |       | 11111100010 | 11111110000 |       |     4.8152024533607E-01
 |       | 11111100010 | 11011111000 |       |     1.8804444085059E-01
 |       | 11111100001 | 11111011000 |       |    -1.3934693237442E-01
 |       | 11111011000 | 11111100001 |       |    -1.3934693237437E-01
 |       | 11111001001 | 11111110000 |       |     1.1316602224968E-01
 |       | 11101111000 | 11111101000 |       |     1.6750140325903E-01
 |       | 11011111000 | 11111100010 |       |     1.8804444085073E-01
 |       | 11011101010 | 11111110000 |       |    -1.5933817804449E-01
--------------------------------------------------
*** Contributions RASCI wfn    Active:  89.84
                                 Hole:   3.24
                                 Part:   6.93

      Mulliken population analysis 
 ---------------------------------------------------
   Atom    Charge (a.u.)   Spin (a.u.)  
 ---------------------------------------------------
   1  C    0.366369       -0.000000 
   2  O   -0.225527        0.000000 
   3  C    0.176759        0.000000 
   4  C    0.177037        0.000000 
   5  C   -0.314609       -0.000000 
   6  C   -0.221204       -0.000000 
   7  C   -0.157177       -0.000000 
   8  C   -0.146793       -0.000000 
   9  C   -0.081714        0.000000 
  10  H    0.153776        0.000000 
  11  H    0.139745       -0.000000 
  12  H    0.126600       -0.000000 
  13  H    0.125860       -0.000000 
  14  H    0.128064        0.000000 
  15  C   -0.314417       -0.000000 
  16  C   -0.220988       -0.000000 
  17  C   -0.147009       -0.000000 
  18  C   -0.157323       -0.000000 
  19  C   -0.081514        0.000000 
  20  H    0.153790        0.000000 
  21  H    0.126595       -0.000000 
  22  H    0.139746       -0.000000 
  23  H    0.125858       -0.000000 
  24  H    0.128076        0.000000 
 ---------------------------------------------------
   Sum:    0.000000       -0.000000 
 ---------------------------------------------------
 
  
 NATURAL OCCUPATION NUMBERS (higher than 1.0E-05)
            1           2           3           4           5           6
    1   2.0000000   2.0000000   2.0000000   2.0000000   2.0000000   2.0000000
            7           8           9          10          11          12
    1   2.0000000   2.0000000   2.0000000   2.0000000   2.0000000   2.0000000
           13          14          15          16          17          18
    1   2.0000000   2.0000000   2.0000000   2.0000000   2.0000000   2.0000000
           19          20          21          22          23          24
    1   2.0000000   2.0000000   2.0000000   1.9999982   1.9999957   1.9999956
           25          26          27          28          29          30
    1   1.9999931   1.9999926   1.9999878   1.9999838   1.9999790   1.9999748
           31          32          33          34          35          36
    1   1.9999609   1.9999436   1.9999210   1.9999203   1.9998921   1.9998535
           37          38          39          40          41          42
[...]
246 A   247 A   243 B   248 A   249 A                                          
 
 Beta MOs, Restricted
 -- Doubly Occupied --           
-20.658 -11.299 -11.261 -11.261 -11.240 -11.240 -11.240 -11.240
  1 A     2 A     1 B     3 A     2 B     4 A     3 B     5 A                  
-11.239 -11.239 -11.239 -11.239 -11.237 -11.237  -1.459  -1.167
  4 B     6 A     7 A     5 B     8 A     6 B     9 A    10 A                  
 -1.156  -1.068  -1.027  -1.025  -1.020  -0.923  -0.848  -0.836
  7 B    11 A     8 B    12 A     9 B    13 A    10 B    14 A                  
 -0.825  -0.784  -0.722  -0.710  -0.674  -0.662  -0.645  -0.628
 11 B    15 A    12 B    16 A    17 A    13 B    14 B    18 A                  
 -0.608  -0.616  -0.596  -0.600  -0.611  -0.526  -0.514  -0.496
 19 A    15 B    20 A    16 B    17 B    21 A    18 B    22 A                  
 -0.495  -0.512  -0.516  -0.387  -0.352  -0.350  -0.348
 19 B    23 A    20 B    21 B    24 A    22 B    25 A                          
 -- Singly Occupied (Vacant) --  
 -0.644  -0.271
 23 B    24 B                                                                  
 -- Virtual --                   
  0.095   0.112   0.122   0.154   0.159   0.162   0.173   0.182
 26 A    27 A    25 B    28 A    26 B    27 B    29 A    28 B                  
  0.185   0.198   0.206   0.208   0.213   0.219   0.247   0.263
 30 A    29 B    31 A    30 B    32 A    31 B    33 A    32 B                  
  0.285   0.290   0.297   0.316   0.319   0.329   0.332   0.339
 34 A    33 B    35 A    36 A    34 B    37 A    35 B    36 B                  
  0.340   0.344   0.346   0.362   0.363   0.371   0.373   0.391
 38 A    37 B    39 A    38 B    40 A    39 B    41 A    40 B                  
  0.399   0.402   0.413   0.423   0.437   0.440   0.454   0.457
 42 A    43 A    44 A    41 B    42 B    45 A    46 A    43 B                  
  0.462   0.466   0.473   0.479   0.489   0.500   0.506   0.511
 47 A    44 B    48 A    45 B    46 B    49 A    50 A    47 B                  
  0.527   0.534   0.538   0.543   0.545   0.550   0.563   0.567
 48 B    51 A    49 B    52 A    50 B    53 A    51 B    54 A                  
  0.568   0.572   0.581   0.590   0.591   0.599   0.612   0.614
 52 B    55 A    56 A    57 A    53 B    54 B    58 A    55 B                  
  0.627   0.629   0.633   0.648   0.661   0.662   0.668   0.678
 56 B    59 A    60 A    57 B    58 B    61 A    59 B    62 A                  
  0.687   0.689   0.708   0.744   0.753   0.757   0.770   0.782
 60 B    63 A    64 A    61 B    62 B    63 B    65 A    66 A                  
  0.803   0.818   0.836   0.842   0.843   0.852   0.857   0.878
 67 A    64 B    65 B    68 A    66 B    67 B    69 A    68 B                  
  0.880   0.898   0.910   0.910   0.910   0.919   0.924   0.931
 70 A    71 A     0 xxx   0 xxx  69 B    72 A    70 B    73 A                  
  0.936   0.956   0.973   0.978   0.977   1.000   1.008   1.016
 71 B    74 A    72 B    75 A    73 B    74 B    76 A    75 B                  
  1.034   1.058   1.060   1.072   1.072   1.078   1.088   1.090
 77 A    78 A    76 B    79 A    77 B    80 A    81 A    78 B                  
  1.107   1.116   1.155   1.183   1.183   1.194   1.199   1.214
 79 B    82 A    80 B    83 A    81 B    84 A    82 B    85 A                  
  1.223   1.236   1.252   1.271   1.298   1.312   1.327   1.342
 83 B    84 B    86 A    87 A    85 B    86 B    88 A    89 A                  
  1.345   1.355   1.403   1.407   1.424   1.424   1.431   1.436
 87 B    90 A    88 B    91 A    89 B    92 A    90 B    93 A                  
  1.451   1.451   1.477   1.483   1.494   1.508   1.509   1.515
 91 B    94 A    95 A    92 B    93 B    94 B    96 A    97 A                  
  1.527   1.538   1.568   1.575   1.588   1.622   1.622   1.640
 95 B    98 A    96 B    99 A    97 B    98 B   100 A   101 A                  
  1.670   1.683   1.698   1.701   1.723   1.730   1.731   1.734
102 A    99 B   103 A   100 B   104 A   101 B   102 B   105 A                  
  1.785   1.785   1.790   1.804   1.809   1.806   1.821   1.834
106 A   103 B   107 A   104 B   105 B   108 A   109 A   106 B                  
  1.836   1.859   1.867   1.894   1.899   1.907   1.928   1.935
110 A   107 B   111 A   108 B   112 A   109 B   113 A   110 B                  
  1.963   1.974   1.988   1.988   1.991   2.000   2.001   2.016
114 A   115 A   111 B   116 A   112 B   113 B   117 A   114 B                  
  2.020   2.045   2.072   2.077   2.122   2.133   2.141   2.156
118 A   119 A   115 B   116 B   120 A   117 B   121 A   122 A                  
  2.155   2.175   2.195   2.199   2.228   2.269   2.290   2.303
118 B   119 B   120 B   123 A   124 A   121 B   125 A   126 A                  
  2.307   2.313   2.337   2.349   2.368   2.384   2.403   2.418
122 B   123 B   127 A   124 B   128 A   125 B   129 A   126 B                  
  2.422   2.436   2.455   2.477   2.478   2.489   2.501   2.511
130 A   131 A   127 B   128 B   132 A   133 A   129 B   134 A                  
  2.516   2.550   2.556   2.578   2.587   2.625   2.644   2.683
130 B   135 A   131 B   132 B   136 A   133 B   137 A   134 B                  
  2.693   2.706   2.742   2.759   2.771   2.784   2.787   2.812
138 A   135 B   139 A   136 B   140 A   141 A   137 B   138 B                  
  2.841   2.869   2.875   2.878   2.902   2.908   2.923   2.926
142 A   139 B   143 A   140 B   144 A   141 B   145 A   142 B                  
  2.943   2.957   2.960   2.961   2.979   2.977   2.992   2.994
143 B   146 A   144 B   147 A   148 A   145 B   146 B   149 A                  
  3.003   3.005   3.011   3.025   3.032   3.045   3.053   3.058
147 B   150 A   151 A   148 B   149 B   152 A   150 B   153 A                  
  3.083   3.084   3.090   3.098   3.108   3.114   3.126   3.130
151 B   154 A   155 A   152 B   156 A   153 B   157 A   154 B                  
  3.139   3.153   3.160   3.165   3.170   3.171   3.192   3.202
158 A   155 B   159 A   156 B   160 A   157 B   161 A   158 B                  
  3.208   3.228   3.232   3.238   3.292   3.292   3.307   3.326
159 B   162 A   163 A   160 B   164 A   161 B   165 A   162 B                  
  3.337   3.348   3.361   3.370   3.385   3.402   3.413   3.415
166 A   163 B   167 A   164 B   168 A   165 B   166 B   169 A                  
  3.432   3.438   3.456   3.460   3.463   3.473   3.483   3.483
170 A   167 B   171 A   168 B   169 B   172 A   173 A   174 A                  
  3.491   3.512   3.517   3.521   3.530   3.541   3.545   3.567
170 B   171 B   172 B   175 A   176 A   177 A   173 B   178 A                  
  3.582   3.598   3.607   3.619   3.623   3.635   3.638   3.654
174 B   179 A   175 B   176 B   180 A   181 A   177 B   182 A                  
  3.669   3.686   3.692   3.694   3.703   3.707   3.716   3.724
178 B   179 B   183 A   180 B   181 B   184 A   182 B   185 A                  
  3.736   3.748   3.760   3.786   3.788   3.796   3.799   3.805
183 B   186 A   184 B   187 A   185 B   188 A   186 B   189 A                  
  3.813   3.817   3.830   3.847   3.859   3.871   3.879   3.886
190 A   187 B   191 A   188 B   192 A   193 A   189 B   190 B                  
  3.900   3.908   3.909   3.947   3.991   3.998   4.020   4.026
194 A   191 B   195 A   192 B   196 A   197 A   198 A   193 B                  
  4.041   4.070   4.075   4.092   4.118   4.149   4.173   4.199
194 B   195 B   199 A   196 B   200 A   201 A   197 B   198 B                  
  4.238   4.259   4.285   4.300   4.309   4.312   4.338   4.347
202 A   199 B   200 B   203 A   201 B   204 A   202 B   205 A                  
  4.376   4.395   4.425   4.457   4.472   4.475   4.506   4.508
203 B   206 A   204 B   207 A   205 B   208 A   206 B   209 A                  
  4.536   4.540   4.557   4.575   4.576   4.581   4.588   4.595
207 B   210 A   208 B   211 A   209 B   212 A   213 A   210 B                  
  4.603   4.629   4.636   4.653   4.671   4.688   4.701   4.740
214 A   215 A   211 B   212 B   213 B   216 A   217 A   214 B                  
  4.784   4.790   4.868   4.895   4.902   4.991   5.008   5.010
215 B   218 A   219 A   220 A   216 B   217 B   221 A   218 B                  
  5.018   5.044   5.058   5.071   5.111   5.136   5.172   5.247
222 A   223 A   219 B   220 B   224 A   221 B   225 A   222 B                  
  5.262   5.276   5.295   5.311   5.395   5.454   5.470   5.532
226 A   227 A   223 B   228 A   224 B   225 B   229 A   226 B                  
  5.562   5.585   5.586   5.618   5.634   5.721   5.764   5.768
227 B   230 A   228 B   231 A   229 B   232 A   230 B   233 A                  
  5.834   5.832   5.862   5.864   6.002   6.055   6.055   6.329
231 B   234 A   232 B   235 A   236 A   237 A   233 B   234 B                  
  6.594   6.800   6.790   6.966   7.243   7.426   7.461  23.100
238 A   235 B   239 A   240 A   236 B   241 A   237 B   242 A                  
 23.323  23.676  23.684  23.700  23.706  23.818  23.847  23.885
238 B   243 A   239 B   244 A   240 B   241 B   245 A   242 B                  
 23.939  24.181  24.248  24.494  45.382
246 A   247 A   243 B   248 A   249 A                                          
 --------------------------------------------------------------
 
          Ground-State Mulliken Net Atomic Charges

     Atom                 Charge (a.u.)
  ----------------------------------------
      1 C                     0.286234
      2 O                    -0.221444
      3 C                     0.180091
      4 C                     0.180361
      5 C                    -0.330927
      6 C                    -0.230321
      7 C                    -0.105450
      8 C                    -0.078732
      9 C                    -0.146293
     10 H                     0.154250
     11 H                     0.143275
     12 H                     0.127302
     13 H                     0.126434
     14 H                     0.127718
     15 C                    -0.330744
     16 C                    -0.230114
     17 C                    -0.078946
     18 C                    -0.105593
     19 C                    -0.146097
     20 H                     0.154265
     21 H                     0.127297
     22 H                     0.143272
     23 H                     0.126432
     24 H                     0.127730
  ----------------------------------------
  Sum of atomic charges =     0.000000

  Do orbital-by-orbital Lowdin population analysis
 
 
 Partial Mulliken analysis unavailable for frozen orbitals
 
 -----------------------------------------------------------------
                    Cartesian Multipole Moments
 -----------------------------------------------------------------
    Charge (ESU x 10^10)
                 0.0000
    Dipole Moment (Debye)
         X       0.0000      Y       0.0000      Z      -1.2403
       Tot       1.2403
    Quadrupole Moments (Debye-Ang)
        XX     -70.5259     XY      -2.3255     YY     -86.4440
        XZ      -0.0000     YZ      -0.0000     ZZ     -78.6484
    Octopole Moments (Debye-Ang^2)
       XXX       0.0000    XXY       0.0000    XYY      -0.0000
       YYY       0.0000    XXZ      -1.6719    XYZ     -16.8560
       YYZ       3.7668    XZZ       0.0000    YZZ       0.0000
       ZZZ      -5.0451
    Hexadecapole Moments (Debye-Ang^3)
      XXXX   -3099.2427   XXXY     -65.8070   XXYY    -666.2262
      XYYY      -4.3101   YYYY    -208.5015   XXXZ      -0.0001
      XXYZ      -0.0000   XYYZ      -0.0000   YYYZ       0.0000
      XXZZ    -643.5833   XYZZ       8.0175   YYZZ    -151.0575
      XZZZ      -0.0000   YZZZ      -0.0000   ZZZZ    -736.3449
 -----------------------------------------------------------------
 Mayer SCF Bond Order, atomic valence on the diagonal:

            1           2           3           4           5           6
    1   1.7547322   0.1597129   0.2293561   0.0697691   0.0137770   0.0524818
    2   0.1597129   1.1032004  -0.0302247  -0.0302050   0.0072896   0.0197268
    3   0.2293561  -0.0302247   3.6750207  -0.0719751   0.0017499   0.0072078
    4   0.0697691  -0.0302050  -0.0719751   3.6750544   1.3576825   1.3822919
    5   0.0137770   0.0072896   0.0017499   1.3576825   4.0190813   0.0522992
    6   0.0524818   0.0197268   0.0072078   1.3822919   0.0522992   3.9783969
    7   0.0140114  -0.0000036  -0.0007995  -0.0273988   0.0634408   1.4661570
    8   0.0245196   0.0011518   0.0024988  -0.0472869   1.4845714   0.0610399
    9   0.0155069   0.0034278   0.0006780   0.0465061   0.0619042   0.0429067
   10   0.0054736   0.0001352  -0.0003649  -0.0112309   0.9761987   0.0058155
   11   0.0021392   0.0081445  -0.0000722  -0.0031697   0.0062084   0.9701662
   12   0.0016535   0.0001087   0.0000549   0.0056781  -0.0123491   0.0006222
   13  -0.0026128   0.0000569   0.0001783   0.0059075   0.0005238  -0.0121027
   14  -0.0002190   0.0000368   0.0000302   0.0006196   0.0051993   0.0053833
   15   0.0343801   0.0072920   1.3576519   0.0017826   0.0230842   0.0081512
   16   0.0339277   0.0197318   1.3822445   0.0072242   0.0081451   0.0030867
   17  -0.0460287   0.0011506  -0.0471808   0.0024798  -0.0025486  -0.0021342
   18  -0.0174215  -0.0000057  -0.0272935  -0.0008142  -0.0013149   0.0004558
   19   0.0100997   0.0034290   0.0464784   0.0006921   0.0027500   0.0021291
   20  -0.0076019   0.0001351  -0.0112141  -0.0003653  -0.0002651   0.0000089
   21   0.0060059   0.0001089   0.0056798   0.0000544   0.0000174   0.0000832
   22  -0.0041873   0.0081446  -0.0031791  -0.0000703   0.0002057   0.0000441
   23   0.0026654   0.0000569   0.0059091   0.0001788  -0.0000187   0.0000282
   24   0.0000247   0.0000368   0.0006164   0.0000312   0.0000947   0.0000635
            7           8           9          10          11          12
    1   0.0140114   0.0245196   0.0155069   0.0054736   0.0021392   0.0016535
    2  -0.0000036   0.0011518   0.0034278   0.0001352   0.0081445   0.0001087
    3  -0.0007995   0.0024988   0.0006780  -0.0003649  -0.0000722   0.0000549
    4  -0.0273988  -0.0472869   0.0465061  -0.0112309  -0.0031697   0.0056781
    5   0.0634408   1.4845714   0.0619042   0.9761987   0.0062084  -0.0123491
    6   1.4661570   0.0610399   0.0429067   0.0058155   0.9701662   0.0006222
    7   3.9286879   0.0200978   1.4344537   0.0006291  -0.0118716   0.0057307
    8   0.0200978   3.9007581   1.4073301  -0.0116554   0.0006091   0.9793611
    9   1.4344537   1.4073301   3.9821951   0.0065026   0.0061336  -0.0100988
   10   0.0006291  -0.0116554   0.0065026   0.9677970   0.0007044  -0.0001531
   11  -0.0118716   0.0006091   0.0061336   0.0007044   0.9755160   0.0000044
   12   0.0057307   0.9793611  -0.0100988  -0.0001531   0.0000044   0.9704728
   13   0.9804872   0.0060096  -0.0102763   0.0000099  -0.0001077   0.0006701
   14  -0.0101525  -0.0105820   0.9795625   0.0005336   0.0005739  -0.0001221
   15  -0.0013190  -0.0025483   0.0027524  -0.0002638   0.0002057   0.0000172
   16   0.0004589  -0.0021251   0.0021242   0.0000102   0.0000444   0.0000831
   17   0.0008190   0.0036559  -0.0010719   0.0002083  -0.0000583   0.0000098
   18  -0.0001275   0.0008153   0.0002256   0.0004132   0.0000199  -0.0000395
   19   0.0002236  -0.0010697   0.0015285   0.0004142   0.0000056   0.0000379
   20   0.0004131   0.0002104   0.0004146  -0.0035408   0.0000148   0.0000062
   21  -0.0000396   0.0000096   0.0000380   0.0000062   0.0000053   0.0000014
   22   0.0000200  -0.0000581   0.0000056   0.0000147   0.0000020   0.0000053
   23   0.0000087   0.0000339   0.0000041   0.0000029   0.0000025  -0.0000008
   24   0.0000058  -0.0000711   0.0000369   0.0000102   0.0000026  -0.0000004
           13          14          15          16          17          18
    1  -0.0026128  -0.0002190   0.0343801   0.0339277  -0.0460287  -0.0174215
    2   0.0000569   0.0000368   0.0072920   0.0197318   0.0011506  -0.0000057
    3   0.0001783   0.0000302   1.3576519   1.3822445  -0.0471808  -0.0272935
    4   0.0059075   0.0006196   0.0017826   0.0072242   0.0024798  -0.0008142
    5   0.0005238   0.0051993   0.0230842   0.0081451  -0.0025486  -0.0013149
    6  -0.0121027   0.0053833   0.0081512   0.0030867  -0.0021342   0.0004558
    7   0.9804872  -0.0101525  -0.0013190   0.0004589   0.0008190  -0.0001275
    8   0.0060096  -0.0105820  -0.0025483  -0.0021251   0.0036559   0.0008153
    9  -0.0102763   0.9795625   0.0027524   0.0021242  -0.0010719   0.0002256
   10   0.0000099   0.0005336  -0.0002638   0.0000102   0.0002083   0.0004132
   11  -0.0001077   0.0005739   0.0002057   0.0000444  -0.0000583   0.0000199
   12   0.0006701  -0.0001221   0.0000172   0.0000831   0.0000098  -0.0000395
   13   0.9719989  -0.0001334  -0.0000185   0.0000283   0.0000337   0.0000087
   14  -0.0001334   0.9715138   0.0000965   0.0000638  -0.0000722   0.0000057
   15  -0.0000185   0.0000965   4.0189015   0.0521831   1.4846376   0.0634515
   16   0.0000283   0.0000638   0.0521831   3.9783333   0.0610688   1.4662333
   17   0.0000337  -0.0000722   1.4846376   0.0610688   3.9010926   0.0201550
   18   0.0000087   0.0000057   0.0634515   1.4662333   0.0201550   3.9289643
   19   0.0000042   0.0000373   0.0617941   0.0428142   1.4074341   1.4345411
   20   0.0000029   0.0000103   0.9761646   0.0058094  -0.0116308   0.0006303
   21  -0.0000008  -0.0000005  -0.0123460   0.0006236   0.9793604   0.0057318
   22   0.0000025   0.0000026   0.0062085   0.9701667   0.0006092  -0.0118726
   23   0.0000010  -0.0000001   0.0005232  -0.0120952   0.0060100   0.9804752
   24  -0.0000001   0.0000013   0.0051994   0.0053822  -0.0105684  -0.0101391
           19          20          21          22          23          24
    1   0.0100997  -0.0076019   0.0060059  -0.0041873   0.0026654   0.0000247
    2   0.0034290   0.0001351   0.0001089   0.0081446   0.0000569   0.0000368
    3   0.0464784  -0.0112141   0.0056798  -0.0031791   0.0059091   0.0006164
    4   0.0006921  -0.0003653   0.0000544  -0.0000703   0.0001788   0.0000312
    5   0.0027500  -0.0002651   0.0000174   0.0002057  -0.0000187   0.0000947
    6   0.0021291   0.0000089   0.0000832   0.0000441   0.0000282   0.0000635
    7   0.0002236   0.0004131  -0.0000396   0.0000200   0.0000087   0.0000058
    8  -0.0010697   0.0002104   0.0000096  -0.0000581   0.0000339  -0.0000711
    9   0.0015285   0.0004146   0.0000380   0.0000056   0.0000041   0.0000369
   10   0.0004142  -0.0035408   0.0000062   0.0000147   0.0000029   0.0000102
   11   0.0000056   0.0000148   0.0000053   0.0000020   0.0000025   0.0000026
   12   0.0000379   0.0000062   0.0000014   0.0000053  -0.0000008  -0.0000004
   13   0.0000042   0.0000029  -0.0000008   0.0000025   0.0000010  -0.0000001
   14   0.0000373   0.0000103  -0.0000005   0.0000026  -0.0000001   0.0000013
   15   0.0617941   0.9761646  -0.0123460   0.0062085   0.0005232   0.0051994
   16   0.0428142   0.0058094   0.0006236   0.9701667  -0.0120952   0.0053822
   17   1.4074341  -0.0116308   0.9793604   0.0006092   0.0060100  -0.0105684
   18   1.4345411   0.0006303   0.0057318  -0.0118726   0.9804752  -0.0101391
   19   3.9821869   0.0064970  -0.0100983   0.0061331  -0.0102683   0.9795256
   20   0.0064970   0.9677880  -0.0001519   0.0007045   0.0000098   0.0005344
   21  -0.0100983  -0.0001519   0.9704792   0.0000045   0.0006702  -0.0001220
   22   0.0061331   0.0007045   0.0000045   0.9755137  -0.0001077   0.0005743
   23  -0.0102683   0.0000098   0.0006702  -0.0001077   0.9720043  -0.0001328
   24   0.9795256   0.0005344  -0.0001220   0.0005743  -0.0001328   0.9715020


 Total job time:  202807.80s(wall), 185748.64s(cpu) 
 Mon Sep 25 02:03:21 2023

        *************************************************************
        *                                                           *
        *  Thank you very much for using Q-Chem.  Have a nice day.  *
        *                                                           *
        *************************************************************


