                  Welcome to Q-Chem
     A Quantum Leap Into The Future Of Chemistry


 Q-Chem 6.0 (devel), Q-Chem, Inc., Pleasanton, CA (2022)

 E. Epifanovsky,  A. T. B. Gilbert,  Xintian Feng,  Joonho Lee,  Yuezhi Mao,  
 N. Mardirossian,  P. Pokhilko,  A. White,  M. Wormit,  M. P. Coons,  
 A. L. Dempwolff,  Zhengting Gan,  D. Hait,  P. R. Horn,  L. D. Jacobson,  
 I. Kaliman,  J. Kussmann,  A. W. Lange,  Ka Un Lao,  D. S. Levine,  Jie Liu,  
 S. C. McKenzie,  A. F. Morrison,  K. Nanda,  F. Plasser,  D. R. Rehn,  
 M. L. Vidal,  Zhi-Qiang You,  Ying Zhu,  B. Alam,  B. Albrecht,  
 A. Aldossary,  E. Alguire,  J. H. Andersen,  V. Athavale,  D. Barton,  
 K. Begam,  A. Behn,  N. Bellonzi,  Y. A. Bernard,  E. J. Berquist,  
 H. Burton,  A. Carreras,  K. Carter-Fenk,  Romit Chakraborty,  
 Chandrima Chakravarty,  Junhan Chen,  A. D. Chien,  K. D. Closser,  
 V. Cofer-Shabica,  L. Cunha,  S. Dasgupta,  Jia Deng,  M. de Wergifosse,  
 M. Diedenhofen,  Hainam Do,  S. Ehlert,  Po-Tung Fang,  S. Fatehi,  
 Qingguo Feng,  T. Friedhoff,  B. Ganoe,  J. Gayvert,  Qinghui Ge,  
 G. Gidofalvi,  M. Goldey,  J. Gomes,  C. Gonzalez-Espinoza,  S. Gulania,  
 A. Gunina,  J. A. Gyamfi,  M. W. D. Hanson-Heine,  P. H. P. Harbach,  
 A. W. Hauser,  M. F. Herbst,  M. Hernandez Vera,  M. Hodecker,  
 Z. C. Holden,  S. Houck,  Xunkun Huang,  Kerwin Hui,  B. C. Huynh,  
 K. Ikeda,  M. Ivanov,  Hyunjun Ji,  Zuxin Jin,  Hanjie Jiang,  B. Kaduk,  
 S. Kaehler,  R. Kang,  K. Khistyaev,  Jaehoon Kim,  Yongbin Kim,  
 P. Klunzinger,  Z. Koczor-Benda,  Joong Hoon Koh,  D. Kosenkov,  
 Saikiran Kotaru,  L. Koulias,  T. Kowalczyk,  C. M. Krauter,  K. Kue,  
 A. Kunitsa,  T. Kus,  A. Landau,  K. V. Lawler,  D. Lefrancois,  S. Lehtola,  
 Rain Li,  Shaozhi Li,  Yi-Pei Li,  Jiashu Liang,  M. Liebenthal,  
 Hung-Hsuan Lin,  You-Sheng Lin,  Fenglai Liu,  Kuan-Yu Liu,  
 M. Loipersberger,  A. Luenser,  C. Malbon,  A. Manjanath,  P. Manohar,  
 E. Mansoor,  S. F. Manzer,  Shan-Ping Mao,  A. V. Marenich,  T. Markovich,  
 S. Mason,  F. Matz,  S. A. Maurer,  P. F. McLaughlin,  M. F. S. J. Menger,  
 J.-M. Mewes,  S. A. Mewes,  P. Morgante,  Mohammad Mostafanejad,  
 J. W. Mullinax,  K. J. Oosterbaan,  G. Paran,  V. Parravicini,  
 Alexander C. Paul,  Suranjan K. Paul,  F. Pavosevic,  Zheng Pei,  S. Prager,  
 E. I. Proynov,  E. Ramos,  B. Rana,  A. E. Rask,  A. Rettig,  R. M. Richard,  
 F. Rob,  E. Rossomme,  T. Scheele,  M. Scheurer,  M. Schneider,  
 P. E. Schneider,  N. Sergueev,  S. M. Sharada,  Hengyuan Shen,  
 W. Skomorowski,  D. W. Small,  C. J. Stein,  Yingli Su,  Yu-Chuan Su,  
 E. J. Sundstrom,  Zhen Tao,  J. Thirman,  Hung-Yi Tsai,  T. Tsuchimochi,  
 N. M. Tubman,  C. Utku,  S. P. Veccham,  O. Vydrov,  J. Wenzel,  
 Jonathan Wong,  J. Witte,  A. Yamada,  Chou-Hsun Yang,  Kun Yao,  
 S. Yeganeh,  S. R. Yost,  A. Zech,  F. Zeller,  Igor Ying Zhang,  
 Xing Zhang,  Yu Zhang,  D. Zuev,  A. Aspuru-Guzik,  A. T. Bell,  
 N. A. Besley,  K. B. Bravaya,  B. R. Brooks,  D. Casanova,  Jeng-Da Chai,  
 Hsing-Ta Chen,  S. Coriani,  C. J. Cramer,  A. E. DePrince, III,  
 R. A. DiStasio Jr.,  A. Dreuw,  B. D. Dunietz,  T. R. Furlani,  
 W. A. Goddard III,  S. Grimme,  S. Hammes-Schiffer,  T. Head-Gordon,  
 W. J. Hehre,  Chao-Ping Hsu,  T.-C. Jagau,  Yousung Jung,  A. Klamt,  
 Jing Kong,  D. S. Lambrecht,  Xiangyuan Li,  WanZhen Liang,  N. J. Mayhall,  
 C. W. McCurdy,  J. B. Neaton,  T. Neudecker,  C. Ochsenfeld,  
 J. A. Parkhill,  R. Peverati,  V. A. Rassolov,  Haisheng Ren,  Yihan Shao,  
 L. V. Slipchenko,  R. P. Steele,  J. E. Subotnik,  A. J. W. Thom,  
 A. Tkatchenko,  D. G. Truhlar,  T. Van Voorhis,  Fan Wang,  
 T. A. Wesolowski,  K. B. Whaley,  H. L. Woodcock III,  P. M. Zimmerman,  
 S. Faraji,  P. M. W. Gill,  M. Head-Gordon,  J. M. Herbert,  A. I. Krylov

 Contributors to earlier versions of Q-Chem not listed above: 
 R. D. Adamson,  B. Austin,  R. Baer,  J. Baker,  G. J. O. Beran,  
 K. Brandhorst,  S. T. Brown,  E. F. C. Byrd,  Arup K. Chakraborty,  
 G. K. L. Chan,  Chun-Min Chang,  Yunqing Chen,  C.-L. Cheng,  
 Siu Hung Chien,  D. M. Chipman,  D. L. Crittenden,  H. Dachsel,  
 R. J. Doerksen,  A. D. Dutoi,  R. G. Edgar,  J. Fosso-Tande,  
 L. Fusti-Molnar,  D. Ghosh,  A. Ghysels,  A. Golubeva-Zadorozhnaya,  
 J. Gonthier,  M. S. Gordon,  S. R. Gwaltney,  G. Hawkins,  J. E. Herr,  
 A. Heyden,  S. Hirata,  E. G. Hohenstein,  G. Kedziora,  F. J. Keil,  
 C. Kelley,  Jihan Kim,  R. A. King,  R. Z. Khaliullin,  P. P. Korambath,  
 W. Kurlancheek,  A. Laurent,  A. M. Lee,  M. S. Lee,  S. V. Levchenko,  
 Ching Yeh Lin,  D. Liotard,  E. Livshits,  R. C. Lochan,  I. Lotan,  
 L. A. Martinez-Martinez,  P. E. Maslen,  N. Nair,  D. P. O'Neill,  
 D. Neuhauser,  E. Neuscamman,  C. M. Oana,  R. Olivares-Amaya,  R. Olson,  
 T. M. Perrine,  B. Peters,  P. A. Pieniazek,  A. Prociuk,  Y. M. Rhee,  
 J. Ritchie,  M. A. Rohrdanz,  E. Rosta,  N. J. Russ,  H. F. Schaefer III,  
 M. W. Schmidt,  N. E. Schultz,  S. Sharma,  N. Shenvi,  C. D. Sherrill,  
 A. C. Simmonett,  A. Sodt,  T. Stein,  D. Stuck,  K. S. Thanthiriwatte,  
 V. Vanovschi,  L. Vogt,  Tao Wang,  A. Warshel,  M. A. Watson,  
 C. F. Williams,  Q. Wu,  X. Xu,  Jun Yang,  W. Zhang,  Yan Zhao

   Please cite Q-Chem as follows:
  "Software for the frontiers of quantum chemistry:
   An overview of developments in the Q-Chem 5 package"
   J. Chem. Phys. 155, 084801 (2021)
   https://doi.org/10.1063/5.0055522 (open access)

 Q-Chem 6.0.1 for Intel X86 EM64T Linux

 Parts of Q-Chem use Armadillo 9.900.5 (Nocturnal Misbehaviour).
 http://arma.sourceforge.net/

 Q-Chem begins on Fri Sep 22 17:43:12 2023  

 Host: atlas-124
0

     Scratch files written to ./qchem164892//
 Processing $rem in /scratch/abel/SOFTWARE/qchem/config/preferences:
 Processing $rem in /dipc/acebg/.qchemrc:

 Checking the input file for inconsistencies... 	...done.

--------------------------------------------------------------
User input:
--------------------------------------------------------------
$comment
 RAS-SF CALCULATION
$end

$molecule
 READ naphthalene.molecule
$end

$rem
!**CALCULATION TYPE***     
JOBTYPE            sp    
EXCHANGE           HF
CORRELATION        RASCI    !RASCI=Casanova; RASCI2=Zimmerman
BASIS              def2-TZVP
BASIS2             STO-3G

!***SCF REFERENCE***
INPUT_BOHR          TRUE
!SKIP_SCFMAN        FALSE
UNRESTRICTED       FALSE
!SCF_GUESS          core
!SCF_GUESS_MIX      FALSE
!SCF_GUESS_ALWAYS   FALSE
MAX_SCF_CYCLES     999
SCF_CONVERGENCE    10
SCF_ALGORITHM      DIIS_GDM !DIIS,DM,DIIS_DM,GDM,DIIS_GDM,GD

!SYMMETRY           TRUE   !use of symmetry for calculating integrals
!SYM_IGNORE         FALSE  !turn off using symmetry
!SYM_TOL            5      !tolerance for determining point group
!USE_ABELIAN_SUBGROUP      !define to use abelian group

!THRESH             14
SCF_FINAL_PRINT     1 !0,1,2,3

!****RAS-SF****
RAS_ROOTS          30       !number of RAS-CI roots to be computed
SET_ITER           100     !number of iterations in RASCI
RAS_ELEC           10       !number of electrons in RAS2
!RAS_ELEC_ALPHA     6       !spin-α electrons in RAS2 
!RAS_ELEC_BETA      4       !spin-β electrons in RAS2

RAS_ACT            9       !number of orbitals in RAS2 
RAS_ACT_ORB  [28,31,32,33,34,35,36,37,45]  !user-selected RAS2 orbitals
RAS_OCC            29       !number of orbitals in RAS1
N_FROZEN_CORE      FC     !Number of frozen core orbitals
N_FROZEN_VIRTUAL   290      !Number of frozen virtual orbitals

RAS_DO_HOLE        TRUE   !presence of hole excitations in RAS-CI wave function
RAS_DO_PART        TRUE   !presence of particle excitations
!RAS_AMPL_PRINT     10     !threshold (×10 2 ) for the CI amplitudes

!RAS_GUESS_CS       0      !number of closed shell guess conﬁgurations
RAS_SPIN_MULT      0      !spin multiplicity. Only for Ms = 0 
!RAS_SRDFT          FALSE  !short-range density functional RAS-CI
!RAS_NFRAG          0     !fragments of excitation analysis in RASCI

RAS_PRINT          2      !level of information
RAS_NATORB         TRUE   !computation of the natural orbital occupancies
!RAS_NATORB_STATE  0      !Saves NO of i RAS computed state in .fchk ﬁle
!RAS_FOD            TRUE

!****RAS-SOC****
CALC_SOC           TRUE   !calculate SOC for EOM-CC, RAS-CI, ADC, TDDFT/TDA and TDDFT
!RAS_SOC_2E        TRUE   !two-electron mean-ﬁeld contribution, default=true
RAS_SOC_SYM_DENS   TRUE   !averaging of α and β densities

!****MEMORY****
MEM_TOTAL          12000 !Default 2000 MB
MEM_STATIC         3000  !Default 64 MB

!**Molecular Properties and Analysis **                                                                                          
POP_MULLIKEN       TRUE   !Run Mulliken population analysis
LOWDIN_POPULATION  TRUE   !Run Löwdin population analysis
GUI                2       !Checkpoints generation
STATE_ANALYSIS     TRUE

!**Wave function analysis of RAS-CI states: MOLDEN**
!PLOTS = 0     ! Note: This can be omitted, default is 0
!NTO_PAIRS = 2 ! Note: This can be omitted, default is 2
!GUI 0
!MOLDEN_FORMAT      TRUE
!PRINT_ORBITALS     15

!**Wave function analysis of RAS-CI state: CUBE**
!NTO_PAIRS = 2 ! Note: This can be omitted, default is 2
!PLOTS = 1
!GUI 0

!**SR-DFT**
!RAS_SRDFT           TRUE !Perform short-range density functional RAS-CI
!RAS_SRDFT_EXC       0 !EX functional. 0=HF. 
!RAS_SRDFT_ONLY_COR  TRUE !No use of EXC functional
!RAS_SRDFT_COR       srPBE !short-range correlation functional
!ras_srdft_0         TRUE !true: no iteration (one-shot); false: iteration
!RAS_OMEGA           400 !Coulomb range-separation parameter. def=400
!RAS_SRDFT_DAMP     0.5 !dumping factor. def=0.5
$end

!$plots
!   grid_points 100 100 100
!   grid_range  (-10,10) (-10,10) (-10,10)
!$end

--------------------------------------------------------------
 ----------------------------------------------------------------
             Standard Nuclear Orientation (Bohr)
    I     Atom           X                Y                Z
 ----------------------------------------------------------------
    1      C       0.0000000000    -1.3623625091    -0.0000000000
    2      C      -0.0000000000     1.3623625091     0.0000000000
    3      C      -2.3376206850    -2.6436978817    -0.0000000000
    4      C      -4.6989437780    -1.2863193617     0.0000000000
    5      C      -4.6989437780     1.2863193617     0.0000000000
    6      C      -2.3376206850     2.6436978817     0.0000000000
    7      C       2.3376206850     2.6436978817     0.0000000000
    8      C       2.3376206850    -2.6436978817    -0.0000000000
    9      C       4.6989437780    -1.2863193617    -0.0000000000
   10      C       4.6989437780     1.2863193617    -0.0000000000
   11      H       2.3527347410    -4.6914688881    -0.0000000000
   12      H       6.4552948094    -2.3370951729    -0.0000000000
   13      H       6.4552948094     2.3370951729    -0.0000000000
   14      H       2.3527347410     4.6914688881     0.0000000000
   15      H      -2.3527347410    -4.6914688881    -0.0000000000
   16      H      -6.4552948094    -2.3370951729     0.0000000000
   17      H      -6.4552948094     2.3370951729     0.0000000000
   18      H      -2.3527347410     4.6914688881     0.0000000000
 ----------------------------------------------------------------
 Molecular Point Group                 D2h   NOp =  8
 Largest Abelian Subgroup              D2h   NOp =  8
 Nuclear Repulsion Energy =         454.42574361 hartrees
 There are       35 alpha and       33 beta electrons
 Requested basis set is def2-TZVP
 There are 142 shells and 358 basis functions

 Total QAlloc Memory Limit  12000 MB
 Mega-Array Size      2933 MB
 MEM_STATIC part      3000 MB

 A cutoff of  1.0D-14 yielded   9314 shell pairs
 There are     60746 function pairs (     79125 Cartesian)
 Smallest overlap matrix eigenvalue = 6.97E-06

 Scale SEOQF with 1.000000e-01/1.000000e-01/1.000000e+00

 Standard Electronic Orientation quadrupole field applied
 Nucleus-field energy     =     0.0000000153 hartrees
 Requested basis set is STO-3G
 There are 28 shells and 58 basis functions
 A cutoff of  1.0D-14 yielded    372 shell pairs
 There are      1737 function pairs
 Smallest overlap matrix eigenvalue = 1.76E-01
 Constructing guess Fock matrix from core Hamiltonian
 Applying Wolfsberg-Helmholtz approximation
 A restricted Hartree-Fock SCF calculation will be
 performed using Geometric Direct Minimization
 SCF converges when RMS gradient is below 1.0E-04
 ---------------------------------------
  Cycle       Energy        RMS Gradient
 ---------------------------------------
    1    -377.1024281241      3.19E-01 Descent step
    2    -377.5468541962      3.46E-01 Descent step
    3    -377.8859971733      3.03E-01 Descent step
    4    -378.1211214613      1.93E-01 Descent step
    5    -378.2601806527      1.11E-01 Dog-leg BFGS step
    6    -378.3143227321      4.20E-02 Normal BFGS step
    7    -378.3171329705      1.19E-02 Normal BFGS step
    8    -378.3179067138      1.17E-02 Normal BFGS step
    9    -378.3182503324      5.59E-03 Normal BFGS step
   10    -378.3183226581      2.78E-03 Normal BFGS step
   11    -378.3183390535      6.44E-04 Normal BFGS step
   12    -378.3183410818      1.25E-04 Normal BFGS step
   13    -378.3183412080      3.36E-05 Convergence criterion met
 ---------------------------------------
 One-Electron    Energy = -1415.2751875132
 Total Coulomb   Energy =   637.1192831548
 Alpha Exchange  Energy =   -27.8774684288
 Beta  Exchange  Energy =   -26.7107120425
 DFT   Exchange  Energy =     0.0000000000
 DFT Correlation Energy =     0.0000000000
 Nuclear Repu.   Energy =   454.4257436217
 Nuclear Attr.   Energy = -1790.7427064877
 Kinetic         Energy =   375.4675189744
 SCF time:  CPU 0.52 s  wall 1.04 s
 SCF   energy in the small basis set = -378.31834121
 Total energy in the small basis set = -378.31834121
 ----------------------------------------------------
  Cycle       Energy    
 ----------------------------------------------------
    1     -49.2566807390     -4.93E+01
 A restricted Hartree-Fock SCF calculation will be
 performed using Geometric Direct Minimization
 SCF converges when RMS gradient is below 1.0E-10
 ---------------------------------------
  Cycle       Energy        RMS Gradient
 ---------------------------------------
    1    -383.2241170042      1.02E-01 Descent step
    2    -383.3409767478      3.88E-02 Normal BFGS step
    3    -383.3706967425      2.67E-02 Normal BFGS step
    4    -383.3736165128      7.99E-03 Normal BFGS step
    5    -383.3737408410      2.97E-03 Normal BFGS step
    6    -383.3737580551      8.66E-04 Normal BFGS step
    7    -383.3737612699      2.35E-04 Normal BFGS step
    8    -383.3737614434      3.33E-05 Normal BFGS step
    9    -383.3737614569      1.01E-05 Normal BFGS step
   10    -383.3737614577      1.42E-06 Normal BFGS step
   11    -383.3737614577      4.93E-07 Normal BFGS step
   12    -383.3737614577      6.04E-08 Normal BFGS step
   13    -383.3737614577      1.26E-08 Normal BFGS step
   14    -383.3737614577      2.54E-09 Normal BFGS step
   15    -383.3737614577      1.15E-09 Normal BFGS step
   GDM::WARNING energy changes are now smaller than effective accuracy.
   GDM::        calculation will continue, but THRESH should be increased
   GDM::        or SCF_CONVERGENCE decreased.
   GDM::        effective_thresh =   1.787024826727102E-009
   16    -383.3737614577      4.24E-10 Normal BFGS step
   GDM::WARNING energy changes are now smaller than effective accuracy.
   GDM::        calculation will continue, but THRESH should be increased
   GDM::        or SCF_CONVERGENCE decreased.
   GDM::        effective_thresh =   1.787024826727102E-009
   17    -383.3737614577      2.01E-10 Normal BFGS step
   18    -383.3737614577      3.42E-11 Convergence criterion met
 ---------------------------------------
 One-Electron    Energy = -1418.3145495411
 Total Coulomb   Energy =   635.2281110286
 Alpha Exchange  Energy =   -27.7907471404
 Beta  Exchange  Energy =   -26.9223194265
 DFT   Exchange  Energy =     0.0000000000
 DFT Correlation Energy =     0.0000000000
 Nuclear Repu.   Energy =   454.4257436217
 Nuclear Attr.   Energy = -1801.1807663365
 Kinetic         Energy =   382.8662167954
 SCF time:  CPU 886.24 s  wall 889.62 s
 SCF   energy in the final basis set = -383.37376146
 Total energy in the final basis set = -383.37376146
  
     ##========================================##
     ||                                        ||
     ||              R A S M A N 2             ||
     ||________________________________________||
     ||                                        ||
     ||  Author:                               ||
     ||                                        ||
     ||        David Casanova (2010)           ||
     ||                                        ||
     ##========================================##
  
Setting single-point xc-functionals (if necessary)

  ***************************************************
  *  RAS-CI Dimensions:                             *
  *                                                 *
  *  Active Elec.:  10 ( 5, 5)   Active Orb.:   9   *
  *  Doubly Occ. :  29           Doubly Vir.: 320   *
  *  Frozen Occ. :  10           Frozen Vir.: 290   *
  *                                                 *
  *  Total CI configurations:   1370628             * 
  *    Active configurations:     15876             * 
  *      Hole configurations:    402192             * 
  *  Particle configurations:    952560             * 
  *                                                 *
  *   Requested states:       30                    *
  *  Spin multiplicity: Any multiplicity            *
  *                                                 *
  ***************************************************
-----------------------------------------
    Memory requirements of RASCI

 Each CI-vector requires     10.46 MiB 
 Max. subspace vectors           3000      

 Reduced Lists                0.01 MiB 
 Excitation Lists             0.01 MiB 
 Excitation Lists Sign        0.01 MiB 
 CI-space (Max)           31753.58 MiB 
 Integrals                  168.79 MiB 
 Memory required (Max)    31753.61 MiB 
 Memory available          2861.02 MiB 

 Q-Chem warning in module rasman2/ras_mem_check.C, line 162:

 Static memory may be insufficient to store the subspace vectors


    Disk requirements of RASCI

 Fock matrix                  1.96 MiB 
 2-electron integrals         4.47 MiB 
 CI-space                 62742.37 MiB 
 Disk required            62748.79 MiB 
-----------------------------------------
  
RAS1 HF-like energy:           -369.9285882621
 Computing integrals
 Computing J and K matrices
 Computing addressing
 Making amplitude guesses
 
Direct CI diagonalization
 ---------------------------------------------------
 Iter    Rts Conv    Rts Left    Ttl Dev     Max Dev
 ---------------------------------------------------
   1         0          30      0.006781    0.000253
   2         0          30      0.003713    0.000164
   3         0          30      0.002531    0.000126
   4         0          30      0.002049    0.000132
   5         0          30      0.001964    0.000230
   6         0          30      0.001989    0.000198
   7         0          30      0.001724    0.000153
   8         0          30      0.001403    0.000128
   9         0          30      0.001197    0.000123
  10         0          30      0.001061    0.000118
  11         1          29      0.000884    0.000090
  12         1          29      0.000747    0.000085
  13         1          29      0.000656    0.000090
  14         3          27      0.000565    0.000093
  15         6          24      0.000468    0.000085
  16         6          24      0.000436    0.000077
  17         8          22      0.000372    0.000064
  18        10          20      0.000436    0.000062
  19        12          18      0.000395    0.000067
  20        14          16      0.000355    0.000088
  21        15          15      0.000288    0.000078
  22        16          14      0.000222    0.000062
  23        18          12      0.000174    0.000050
  24        20          10      0.000137    0.000040
  25        20          10      0.000108    0.000031
  26        20          10      0.000086    0.000024
  27        21           9      0.000069    0.000019
  28        23           7      0.000054    0.000014
  29        23           7      0.000042    0.000011
  30        23           7      0.000032    0.000008
  31        27           3      0.000024    0.000005
  32        27           3      0.000020    0.000004
  33        27           3      0.000017    0.000003
  34        27           3      0.000015    0.000002
  35        29           1      0.000013    0.000001
  36        30           0      0.000012    0.000001    Roots Converged
 ---------------------------------------------------
   
**************************************************
 RAS-CI total energy for state   1:   -383.554865438419
  Excitation energy (eV) =  0.000000000000
  State symmetry: Ag    (D2h      )
  <S^2>      :  0.0000
  Dipole Moment:    0.0000 X     0.0000 Y    -0.0000 Z
 NATURAL OCCUPATION NUMBERS (higher than 1.0E-05)
            1           2           3           4           5           6
    1   2.0000000   2.0000000   2.0000000   2.0000000   2.0000000   2.0000000
            7           8           9          10          11          12
    1   2.0000000   2.0000000   2.0000000   2.0000000   2.0000000   2.0000000
           13          14          15          16          17          18
    1   2.0000000   2.0000000   2.0000000   2.0000000   2.0000000   2.0000000
           19          20          21          22          23          24
    1   2.0000000   2.0000000   2.0000000   2.0000000   2.0000000   2.0000000
           25          26          27          28          29          30
    1   2.0000000   2.0000000   2.0000000   2.0000000   2.0000000   1.9796327
           31          32          33          34          35          36
    1   1.9632077   1.9314592   1.9268678   1.8491469   0.1556790   0.0731342
           37          38          39          40          41          42
    1   0.0675306   0.0349572   0.0100135   0.0021351   0.0014577   0.0013701
           43          44          45
    1   0.0013585   0.0011838   0.0008659
Natural Orbitals stored in FCHK

  Amplitudes : 
  
 | HOLE  | ALPHA     | BETA      | PART  |    AMPLITUDE 
--------------------------------------------------
 |       | 111110000 | 111110000 |       |     8.8782205954147E-01
 |       | 111101000 | 111101000 |       |    -1.7441380721962E-01
--------------------------------------------------
*** Contributions RASCI wfn    Active:  97.09
                                 Hole:   0.00
                                 Part:   2.91

      Mulliken population analysis 
 ---------------------------------------------------
   Atom    Charge (a.u.)   Spin (a.u.)  
 ---------------------------------------------------
   1  C    0.103502        0.000000 
   2  C    0.103502        0.000000 
   3  C   -0.156440       -0.000000 
   4  C   -0.151359        0.000000 
   5  C   -0.151359        0.000000 
   6  C   -0.156440       -0.000000 
   7  C   -0.156440       -0.000000 
   8  C   -0.156440       -0.000000 
   9  C   -0.151359        0.000000 
  10  C   -0.151359        0.000000 
  11  H    0.130824       -0.000000 
  12  H    0.125225       -0.000000 
  13  H    0.125225       -0.000000 
  14  H    0.130824       -0.000000 
  15  H    0.130824       -0.000000 
  16  H    0.125225       -0.000000 
  17  H    0.125225       -0.000000 
  18  H    0.130824       -0.000000 
 ---------------------------------------------------
   Sum:   -0.000000       -0.000000 
 ---------------------------------------------------
 
  
 NATURAL OCCUPATION NUMBERS (higher than 1.0E-05)
            1           2           3           4           5           6
    1   2.0000000   2.0000000   2.0000000   2.0000000   2.0000000   2.0000000
            7           8           9          10          11          12
    1   2.0000000   2.0000000   2.0000000   2.0000000   2.0000000   2.0000000
           13          14          15          16          17          18
    1   2.0000000   2.0000000   2.0000000   2.0000000   2.0000000   2.0000000
           19          20          21          22          23          24
    1   2.0000000   2.0000000   2.0000000   2.0000000   2.0000000   2.0000000
           25          26          27          28          29          30
    1   2.0000000   2.0000000   2.0000000   2.0000000   2.0000000   1.9796327
           31          32          33          34          35          36
    1   1.9632077   1.9314592   1.9268678   1.8491469   0.1556790   0.0731342
           37          38          39          40          41          42
    1   0.0675306   0.0349572   0.0100135   0.0021351   0.0014577   0.0013701
           43          44          45
    1   0.0013585   0.0011838   0.0008659
  
*** Unpaired Electrons
 Yamaguchi Nd:         1.33
 Head-Gordon Nu:       0.70
 Head-Gordon Nu_nl:    0.25
  
**************************************************
 RAS-CI total energy for state   2:   -383.473331861057
  Excitation energy (eV) =  2.218641520986
  State symmetry: B2u   (D2h      )
  <S^2>      :  2.0000
  Dipole Moment:    0.0000 X     0.0000 Y     0.0000 Z
  Trans. Moment:    0.0000 X     0.0000 Y    -0.0000 Z
  Strength   :  0.000000
  Natural transition orbitals ( 1 -> 2 ):
   e-/hole pair  1:  ampl =  0.877622 ( 77.0%)   [9 : 10]
   e-/hole pair  2:  ampl =  0.240774 (  5.8%)   [8 : 11]
   Sum of square amplitudes: 0.93

 NATURAL OCCUPATION NUMBERS (higher than 1.0E-05)
            1           2           3           4           5           6
    1   2.0000000   2.0000000   2.0000000   2.0000000   2.0000000   2.0000000
            7           8           9          10          11          12
    1   2.0000000   2.0000000   2.0000000   2.0000000   2.0000000   2.0000000
           13          14          15          16          17          18
    1   2.0000000   2.0000000   2.0000000   2.0000000   2.0000000   2.0000000
           19          20          21          22          23          24
    1   2.0000000   2.0000000   2.0000000   2.0000000   2.0000000   2.0000000
           25          26          27          28          29          30
    1   2.0000000   2.0000000   2.0000000   2.0000000   2.0000000   1.9696025
           31          32          33          34          35          36
    1   1.9515990   1.9216695   1.8910247   1.0644366   0.9400416   0.1117397
           37          38          39          40          41          42
    1   0.0797784   0.0463296   0.0152170   0.0020970   0.0017953   0.0013826
           43          44          45
    1   0.0013417   0.0011517   0.0007931
Natural Orbitals stored in FCHK

  Amplitudes : 
  
 | HOLE  | ALPHA     | BETA      | PART  |    AMPLITUDE 
--------------------------------------------------
 |       | 111110000 | 111101000 |       |     6.3662615155546E-01
 |       | 111110000 | 110110010 |       |    -1.4351707848384E-01
 |       | 111101000 | 111110000 |       |    -6.3662615024096E-01
 |       | 110110010 | 111110000 |       |     1.4351667613424E-01
--------------------------------------------------
*** Contributions RASCI wfn    Active:  96.12
                                 Hole:   0.00
                                 Part:   3.88

      Mulliken population analysis 
 ---------------------------------------------------
   Atom    Charge (a.u.)   Spin (a.u.)  
 ---------------------------------------------------
   1  C    0.096882        0.000001 
   2  C    0.096882        0.000001 
   3  C   -0.164939       -0.000000 
   4  C   -0.139148       -0.000000 
   5  C   -0.139148       -0.000000 
   6  C   -0.164939       -0.000000 
   7  C   -0.164939       -0.000000 
   8  C   -0.164939       -0.000000 
   9  C   -0.139148       -0.000000 
  10  C   -0.139148       -0.000000 
  11  H    0.130460       -0.000000 
  12  H    0.125186       -0.000000 
  13  H    0.125186       -0.000000 
  14  H    0.130460       -0.000000 
  15  H    0.130460       -0.000000 
  16  H    0.125186       -0.000000 
  17  H    0.125186       -0.000000 
  18  H    0.130460       -0.000000 
 ---------------------------------------------------
   Sum:   -0.000000        0.000000 
 ---------------------------------------------------
 
  
 NATURAL OCCUPATION NUMBERS (higher than 1.0E-05)
            1           2           3           4           5           6
    1   2.0000000   2.0000000   2.0000000   2.0000000   2.0000000   2.0000000
            7           8           9          10          11          12
    1   2.0000000   2.0000000   2.0000000   2.0000000   2.0000000   2.0000000
           13          14          15          16          17          18
    1   2.0000000   2.0000000   2.0000000   2.0000000   2.0000000   2.0000000
           19          20          21          22          23          24
    1   2.0000000   2.0000000   2.0000000   2.0000000   2.0000000   2.0000000
           25          26          27          28          29          30
    1   2.0000000   2.0000000   2.0000000   2.0000000   2.0000000   1.9696025
           31          32          33          34          35          36
    1   1.9515990   1.9216695   1.8910247   1.0644366   0.9400416   0.1117397
           37          38          39          40          41          42
    1   0.0797784   0.0463296   0.0152170   0.0020970   0.0017953   0.0013826
           43          44          45
    1   0.0013417   0.0011517   0.0007931
  
*** Unpaired Electrons
 Yamaguchi Nd:         3.01
 Head-Gordon Nu:       2.40
 Head-Gordon Nu_nl:    2.14
  
**************************************************
 RAS-CI total energy for state   3:   -383.409462391464
  Excitation energy (eV) =  3.956618214087
  State symmetry: B1g   (D2h      )
  <S^2>      :  2.0000
  Dipole Moment:    0.0000 X    -0.0000 Y    -0.0000 Z
  Trans. Moment:   -0.0000 X     0.0000 Y    -0.0000 Z
  Strength   :  0.000000
  Natural transition orbitals ( 1 -> 3 ):
   e-/hole pair  1:  ampl =  0.651678 ( 42.5%)   [9 : 10]
   e-/hole pair  2:  ampl =  0.637447 ( 40.6%)   [8 : 11]
   Sum of square amplitudes: 0.88

 NATURAL OCCUPATION NUMBERS (higher than 1.0E-05)
            1           2           3           4           5           6
    1   2.0000000   2.0000000   2.0000000   2.0000000   2.0000000   2.0000000
            7           8           9          10          11          12
    1   2.0000000   2.0000000   2.0000000   2.0000000   2.0000000   2.0000000
           13          14          15          16          17          18
    1   2.0000000   2.0000000   2.0000000   2.0000000   2.0000000   2.0000000
           19          20          21          22          23          24
    1   2.0000000   2.0000000   2.0000000   2.0000000   2.0000000   2.0000000
           25          26          27          28          29          30
    1   2.0000000   2.0000000   2.0000000   2.0000000   2.0000000   1.9584487
           31          32          33          34          35          36
    1   1.9543669   1.9239149   1.4833716   1.4370529   0.5578152   0.5308934
           37          38          39          40          41          42
    1   0.0774107   0.0456780   0.0199889   0.0034997   0.0020292   0.0017550
           43          44          45
    1   0.0015924   0.0013331   0.0008494
Natural Orbitals stored in FCHK

  Amplitudes : 
  
 | HOLE  | ALPHA     | BETA      | PART  |    AMPLITUDE 
--------------------------------------------------
 |       | 111110000 | 111100010 |       |     4.4983779834601E-01
 |       | 111110000 | 110111000 |       |    -4.4677178485194E-01
 |       | 111100010 | 111110000 |       |    -4.4983779834605E-01
 |       | 110111000 | 111110000 |       |     4.4677178485196E-01
--------------------------------------------------
*** Contributions RASCI wfn    Active:  94.65
                                 Hole:   0.00
                                 Part:   5.35

      Mulliken population analysis 
 ---------------------------------------------------
   Atom    Charge (a.u.)   Spin (a.u.)  
 ---------------------------------------------------
   1  C    0.093921       -0.000000 
   2  C    0.093921       -0.000000 
   3  C   -0.158563       -0.000000 
   4  C   -0.143658        0.000000 
   5  C   -0.143658        0.000000 
   6  C   -0.158563       -0.000000 
   7  C   -0.158563       -0.000000 
   8  C   -0.158563       -0.000000 
   9  C   -0.143658        0.000000 
  10  C   -0.143658        0.000000 
  11  H    0.130072       -0.000000 
  12  H    0.125190        0.000000 
  13  H    0.125190        0.000000 
  14  H    0.130072        0.000000 
  15  H    0.130072       -0.000000 
  16  H    0.125190        0.000000 
  17  H    0.125190        0.000000 
  18  H    0.130072        0.000000 
 ---------------------------------------------------
   Sum:   -0.000000       -0.000000 
 ---------------------------------------------------
 
  
 NATURAL OCCUPATION NUMBERS (higher than 1.0E-05)
            1           2           3           4           5           6
    1   2.0000000   2.0000000   2.0000000   2.0000000   2.0000000   2.0000000
            7           8           9          10          11          12
    1   2.0000000   2.0000000   2.0000000   2.0000000   2.0000000   2.0000000
           13          14          15          16          17          18
    1   2.0000000   2.0000000   2.0000000   2.0000000   2.0000000   2.0000000
           19          20          21          22          23          24
    1   2.0000000   2.0000000   2.0000000   2.0000000   2.0000000   2.0000000
           25          26          27          28          29          30
    1   2.0000000   2.0000000   2.0000000   2.0000000   2.0000000   1.9584487
           31          32          33          34          35          36
    1   1.9543669   1.9239149   1.4833716   1.4370529   0.5578152   0.5308934
           37          38          39          40          41          42
    1   0.0774107   0.0456780   0.0199889   0.0034997   0.0020292   0.0017550
           43          44          45
    1   0.0015924   0.0013331   0.0008494
  
*** Unpaired Electrons
 Yamaguchi Nd:         3.78
 Head-Gordon Nu:       2.49
 Head-Gordon Nu_nl:    2.57
  
**************************************************
 RAS-CI total energy for state   4:   -383.403771513254
  Excitation energy (eV) =  4.111474889038
  State symmetry: B3u   (D2h      )
  <S^2>      :  0.0000
  Dipole Moment:    0.0000 X     0.0000 Y    -0.0000 Z
  Trans. Moment:    0.1197 X     0.0000 Y    -0.0000 Z
  Strength   :  0.001443
  Natural transition orbitals ( 1 -> 4 ):
   e-/hole pair  1:  ampl =  0.620169 ( 38.5%)   [9 : 10]
   e-/hole pair  2:  ampl =  0.584071 ( 34.1%)   [8 : 11]
   Sum of square amplitudes: 0.75

 NATURAL OCCUPATION NUMBERS (higher than 1.0E-05)
            1           2           3           4           5           6
    1   2.0000000   2.0000000   2.0000000   2.0000000   2.0000000   2.0000000
            7           8           9          10          11          12
    1   2.0000000   2.0000000   2.0000000   2.0000000   2.0000000   2.0000000
           13          14          15          16          17          18
    1   2.0000000   2.0000000   2.0000000   2.0000000   2.0000000   2.0000000
           19          20          21          22          23          24
    1   2.0000000   2.0000000   2.0000000   2.0000000   2.0000000   2.0000000
           25          26          27          28          29          30
    1   2.0000000   2.0000000   2.0000000   2.0000000   2.0000000   1.9469852
           31          32          33          34          35          36
    1   1.9201070   1.9030117   1.4999535   1.4219034   0.5567552   0.5562900
           37          38          39          40          41          42
    1   0.0832231   0.0822133   0.0211602   0.0019091   0.0016906   0.0013935
           43          44          45
    1   0.0013915   0.0011606   0.0008522
Natural Orbitals stored in FCHK

  Amplitudes : 
  
 | HOLE  | ALPHA     | BETA      | PART  |    AMPLITUDE 
--------------------------------------------------
 |       | 111110000 | 111100100 |       |    -4.3518359278839E-01
 |       | 111110000 | 111011000 |       |     4.1495243431674E-01
 |       | 111100100 | 111110000 |       |    -4.3518359279682E-01
 |       | 111100100 | 101111000 |       |    -1.3964026469130E-01
 |       | 111100001 | 111011000 |       |     1.3020579380531E-01
 |       | 111011000 | 111110000 |       |     4.1495243430930E-01
 |       | 111011000 | 111100001 |       |     1.3020579380240E-01
 |       | 101111000 | 111100100 |       |    -1.3964026468822E-01
--------------------------------------------------
*** Contributions RASCI wfn    Active:  95.39
                                 Hole:   0.00
                                 Part:   4.61

      Mulliken population analysis 
 ---------------------------------------------------
   Atom    Charge (a.u.)   Spin (a.u.)  
 ---------------------------------------------------
   1  C    0.087924        0.000000 
   2  C    0.087924        0.000000 
   3  C   -0.146900       -0.000000 
   4  C   -0.152468        0.000000 
   5  C   -0.152468        0.000000 
   6  C   -0.146900       -0.000000 
   7  C   -0.146900       -0.000000 
   8  C   -0.146900       -0.000000 
   9  C   -0.152468        0.000000 
  10  C   -0.152468        0.000000 
  11  H    0.130721       -0.000000 
  12  H    0.124685        0.000000 
  13  H    0.124685        0.000000 
  14  H    0.130721       -0.000000 
  15  H    0.130721       -0.000000 
  16  H    0.124685        0.000000 
  17  H    0.124685        0.000000 
  18  H    0.130721       -0.000000 
 ---------------------------------------------------
   Sum:   -0.000000       -0.000000 
 ---------------------------------------------------
 
  
 NATURAL OCCUPATION NUMBERS (higher than 1.0E-05)
            1           2           3           4           5           6
    1   2.0000000   2.0000000   2.0000000   2.0000000   2.0000000   2.0000000
            7           8           9          10          11          12
    1   2.0000000   2.0000000   2.0000000   2.0000000   2.0000000   2.0000000
           13          14          15          16          17          18
    1   2.0000000   2.0000000   2.0000000   2.0000000   2.0000000   2.0000000
           19          20          21          22          23          24
    1   2.0000000   2.0000000   2.0000000   2.0000000   2.0000000   2.0000000
           25          26          27          28          29          30
    1   2.0000000   2.0000000   2.0000000   2.0000000   2.0000000   1.9469852
           31          32          33          34          35          36
    1   1.9201070   1.9030117   1.4999535   1.4219034   0.5567552   0.5562900
           37          38          39          40          41          42
    1   0.0832231   0.0822133   0.0211602   0.0019091   0.0016906   0.0013935
           43          44          45
    1   0.0013915   0.0011606   0.0008522
  
*** Unpaired Electrons
 Yamaguchi Nd:         4.00
 Head-Gordon Nu:       2.62
 Head-Gordon Nu_nl:    2.65
  
**************************************************
 RAS-CI total energy for state   5:   -383.403036401350
  Excitation energy (eV) =  4.131478301697
  State symmetry: B3u   (D2h      )
  <S^2>      :  2.0000
  Dipole Moment:    0.0000 X     0.0000 Y    -0.0000 Z
  Trans. Moment:    0.0000 X     0.0000 Y    -0.0000 Z
  Strength   :  0.000000
  Natural transition orbitals ( 1 -> 5 ):
   e-/hole pair  1:  ampl =  0.624257 ( 39.0%)   [9 : 10]
   e-/hole pair  2:  ampl =  0.586364 ( 34.4%)   [8 : 11]
   Sum of square amplitudes: 0.76

 NATURAL OCCUPATION NUMBERS (higher than 1.0E-05)
            1           2           3           4           5           6
    1   2.0000000   2.0000000   2.0000000   2.0000000   2.0000000   2.0000000
            7           8           9          10          11          12
    1   2.0000000   2.0000000   2.0000000   2.0000000   2.0000000   2.0000000
           13          14          15          16          17          18
    1   2.0000000   2.0000000   2.0000000   2.0000000   2.0000000   2.0000000
           19          20          21          22          23          24
    1   2.0000000   2.0000000   2.0000000   2.0000000   2.0000000   2.0000000
           25          26          27          28          29          30
    1   2.0000000   2.0000000   2.0000000   2.0000000   2.0000000   1.9563042
           31          32          33          34          35          36
    1   1.9170038   1.9080025   1.5183706   1.4129001   0.5502596   0.5481333
           37          38          39          40          41          42
    1   0.0862880   0.0746871   0.0173175   0.0025184   0.0021226   0.0019475
           43          44          45
    1   0.0015608   0.0015259   0.0010580
Natural Orbitals stored in FCHK

  Amplitudes : 
  
 | HOLE  | ALPHA     | BETA      | PART  |    AMPLITUDE 
--------------------------------------------------
 |       | 111110000 | 111100100 |       |    -4.3675462025336E-01
 |       | 111110000 | 111011000 |       |    -4.1071676795847E-01
 |       | 111100100 | 111110000 |       |     4.3675462024547E-01
 |       | 111100100 | 101111000 |       |     1.6854801347445E-01
 |       | 111100001 | 111011000 |       |    -1.5411705462836E-01
 |       | 111011000 | 111110000 |       |     4.1071676796625E-01
 |       | 111011000 | 111100001 |       |     1.5411705463079E-01
 |       | 101111000 | 111100100 |       |    -1.6854801347710E-01
--------------------------------------------------
*** Contributions RASCI wfn    Active:  95.80
                                 Hole:   0.00
                                 Part:   4.20

      Mulliken population analysis 
 ---------------------------------------------------
   Atom    Charge (a.u.)   Spin (a.u.)  
 ---------------------------------------------------
   1  C    0.086954       -0.000000 
   2  C    0.086954       -0.000000 
   3  C   -0.149286        0.000000 
   4  C   -0.149593       -0.000000 
   5  C   -0.149593       -0.000000 
   6  C   -0.149286        0.000000 
   7  C   -0.149286        0.000000 
   8  C   -0.149286        0.000000 
   9  C   -0.149593       -0.000000 
  10  C   -0.149593       -0.000000 
  11  H    0.130745        0.000000 
  12  H    0.124657       -0.000000 
  13  H    0.124657       -0.000000 
  14  H    0.130745        0.000000 
  15  H    0.130745        0.000000 
  16  H    0.124657       -0.000000 
  17  H    0.124657       -0.000000 
  18  H    0.130745        0.000000 
 ---------------------------------------------------
   Sum:   -0.000000        0.000000 
 ---------------------------------------------------
 
  
 NATURAL OCCUPATION NUMBERS (higher than 1.0E-05)
            1           2           3           4           5           6
    1   2.0000000   2.0000000   2.0000000   2.0000000   2.0000000   2.0000000
            7           8           9          10          11          12
    1   2.0000000   2.0000000   2.0000000   2.0000000   2.0000000   2.0000000
           13          14          15          16          17          18
    1   2.0000000   2.0000000   2.0000000   2.0000000   2.0000000   2.0000000
           19          20          21          22          23          24
    1   2.0000000   2.0000000   2.0000000   2.0000000   2.0000000   2.0000000
           25          26          27          28          29          30
    1   2.0000000   2.0000000   2.0000000   2.0000000   2.0000000   1.9563042
           31          32          33          34          35          36
    1   1.9170038   1.9080025   1.5183706   1.4129001   0.5502596   0.5481333
           37          38          39          40          41          42
    1   0.0862880   0.0746871   0.0173175   0.0025184   0.0021226   0.0019475
           43          44          45
    1   0.0015608   0.0015259   0.0010580
  
*** Unpaired Electrons
 Yamaguchi Nd:         3.94
 Head-Gordon Nu:       2.57
 Head-Gordon Nu_nl:    2.61
  
**************************************************
 RAS-CI total energy for state   6:   -383.365528593294
  Excitation energy (eV) =  5.152117687413
  State symmetry: B2u   (D2h      )
  <S^2>      :  0.0000
  Dipole Moment:    0.0000 X    -0.0000 Y     0.0000 Z
  Trans. Moment:    0.0000 X     1.0510 Y     0.0000 Z
  Strength   :  0.139420
  Natural transition orbitals ( 1 -> 6 ):
   e-/hole pair  1:  ampl =  0.866197 ( 75.0%)   [9 : 10]
   e-/hole pair  2:  ampl =  0.167975 (  2.8%)   [8 : 11]
   Sum of square amplitudes: 0.81

 NATURAL OCCUPATION NUMBERS (higher than 1.0E-05)
            1           2           3           4           5           6
    1   2.0000000   2.0000000   2.0000000   2.0000000   2.0000000   2.0000000
            7           8           9          10          11          12
    1   2.0000000   2.0000000   2.0000000   2.0000000   2.0000000   2.0000000
           13          14          15          16          17          18
    1   2.0000000   2.0000000   2.0000000   2.0000000   2.0000000   2.0000000
           19          20          21          22          23          24
    1   2.0000000   2.0000000   2.0000000   2.0000000   2.0000000   2.0000000
           25          26          27          28          29          30
    1   2.0000000   2.0000000   2.0000000   2.0000000   2.0000000   1.9742987
           31          32          33          34          35          36
    1   1.9631381   1.9154897   1.8932688   1.0624883   0.9642567   0.1024342
           37          38          39          40          41          42
    1   0.0711700   0.0314502   0.0076668   0.0032462   0.0030845   0.0030386
           43          44          45
    1   0.0021378   0.0016144   0.0012171
Natural Orbitals stored in FCHK

  Amplitudes : 
  
 | HOLE  | ALPHA     | BETA      | PART  |    AMPLITUDE 
--------------------------------------------------
 |       | 111110000 | 111101000 |       |     6.1376231050238E-01
 |       | 111110000 | 111010100 |       |     1.3790899961707E-01
 |       | 111101000 | 111110000 |       |     6.1376079321233E-01
 |       | 111101000 | 111100001 |       |     1.2361570992287E-01
 |       | 111101000 | 101111000 |       |     1.3629380428896E-01
 |       | 111100001 | 111101000 |       |     1.2356719091216E-01
 |       | 111010100 | 111110000 |       |     1.3793640450608E-01
 |       | 101111000 | 111101000 |       |     1.3635017850600E-01
--------------------------------------------------
*** Contributions RASCI wfn    Active:  96.89
                                 Hole:   0.00
                                 Part:   3.11

      Mulliken population analysis 
 ---------------------------------------------------
   Atom    Charge (a.u.)   Spin (a.u.)  
 ---------------------------------------------------
   1  C    0.110553        0.000007 
   2  C    0.110553        0.000007 
   3  C   -0.170784        0.000021 
   4  C   -0.140103       -0.000025 
   5  C   -0.140103       -0.000025 
   6  C   -0.170784        0.000021 
   7  C   -0.170784        0.000021 
   8  C   -0.170784        0.000021 
   9  C   -0.140103       -0.000025 
  10  C   -0.140103       -0.000025 
  11  H    0.130484        0.000000 
  12  H    0.125127       -0.000000 
  13  H    0.125127       -0.000000 
  14  H    0.130484        0.000000 
  15  H    0.130484        0.000000 
  16  H    0.125127       -0.000000 
  17  H    0.125127       -0.000000 
  18  H    0.130484        0.000000 
 ---------------------------------------------------
   Sum:   -0.000000        0.000000 
 ---------------------------------------------------
 
  
 NATURAL OCCUPATION NUMBERS (higher than 1.0E-05)
            1           2           3           4           5           6
    1   2.0000000   2.0000000   2.0000000   2.0000000   2.0000000   2.0000000
            7           8           9          10          11          12
    1   2.0000000   2.0000000   2.0000000   2.0000000   2.0000000   2.0000000
           13          14          15          16          17          18
    1   2.0000000   2.0000000   2.0000000   2.0000000   2.0000000   2.0000000
           19          20          21          22          23          24
    1   2.0000000   2.0000000   2.0000000   2.0000000   2.0000000   2.0000000
           25          26          27          28          29          30
    1   2.0000000   2.0000000   2.0000000   2.0000000   2.0000000   1.9742987
           31          32          33          34          35          36
    1   1.9631381   1.9154897   1.8932688   1.0624883   0.9642567   0.1024342
           37          38          39          40          41          42
    1   0.0711700   0.0314502   0.0076668   0.0032462   0.0030845   0.0030386
           43          44          45
    1   0.0021378   0.0016144   0.0012171
  
*** Unpaired Electrons
 Yamaguchi Nd:         2.92
 Head-Gordon Nu:       2.38
 Head-Gordon Nu_nl:    2.13
  
**************************************************
 RAS-CI total energy for state   7:   -383.364970261677
  Excitation energy (eV) =  5.167310663691
  State symmetry: B2u   (D2h      )
  <S^2>      :  2.0000
  Dipole Moment:    0.0000 X     0.0000 Y     0.0000 Z
  Trans. Moment:    0.0000 X     0.0000 Y     0.0000 Z
  Strength   :  0.000000
  Natural transition orbitals ( 1 -> 7 ):
   e-/hole pair  1:  ampl =  0.880327 ( 77.5%)   [9 : 10]
   e-/hole pair  2:  ampl =  0.186399 (  3.5%)   [8 : 11]
   Sum of square amplitudes: 0.85

 NATURAL OCCUPATION NUMBERS (higher than 1.0E-05)
            1           2           3           4           5           6
    1   2.0000000   2.0000000   2.0000000   2.0000000   2.0000000   2.0000000
            7           8           9          10          11          12
    1   2.0000000   2.0000000   2.0000000   2.0000000   2.0000000   2.0000000
           13          14          15          16          17          18
    1   2.0000000   2.0000000   2.0000000   2.0000000   2.0000000   2.0000000
           19          20          21          22          23          24
    1   2.0000000   2.0000000   2.0000000   2.0000000   2.0000000   2.0000000
           25          26          27          28          29          30
    1   2.0000000   2.0000000   2.0000000   2.0000000   2.0000000   1.9538443
           31          32          33          34          35          36
    1   1.9218462   1.8906394   1.8257433   1.0807070   0.9244160   0.1919337
           37          38          39          40          41          42
    1   0.0943818   0.0835322   0.0228335   0.0028360   0.0019227   0.0018832
           43          44          45
    1   0.0014430   0.0012516   0.0007861
Natural Orbitals stored in FCHK

  Amplitudes : 
  
 | HOLE  | ALPHA     | BETA      | PART  |    AMPLITUDE 
--------------------------------------------------
 |       | 111110000 | 111010100 |       |     5.7735233303906E-01
 |       | 111110000 | 101110001 |       |    -1.1017882840877E-01
 |       | 111110000 | 101011100 |       |    -1.0224440161656E-01
 |       | 111011000 | 101110100 |       |    -1.0387072437218E-01
 |       | 111010100 | 111110000 |       |    -5.7735237285979E-01
 |       | 101110100 | 111011000 |       |     1.0385226591591E-01
 |       | 101110001 | 111110000 |       |     1.1018340290855E-01
 |       | 101011100 | 111110000 |       |     1.0223177126969E-01
--------------------------------------------------
*** Contributions RASCI wfn    Active:  94.63
                                 Hole:   0.00
                                 Part:   5.37

      Mulliken population analysis 
 ---------------------------------------------------
   Atom    Charge (a.u.)   Spin (a.u.)  
 ---------------------------------------------------
   1  C    0.090149       -0.000049 
   2  C    0.090149       -0.000049 
   3  C   -0.144345       -0.000001 
   4  C   -0.155965        0.000026 
   5  C   -0.155965        0.000026 
   6  C   -0.144345       -0.000001 
   7  C   -0.144345       -0.000001 
   8  C   -0.144345       -0.000001 
   9  C   -0.155965        0.000026 
  10  C   -0.155965        0.000026 
  11  H    0.130855       -0.000000 
  12  H    0.124381        0.000000 
  13  H    0.124381        0.000000 
  14  H    0.130855       -0.000000 
  15  H    0.130855       -0.000000 
  16  H    0.124381        0.000000 
  17  H    0.124381        0.000000 
  18  H    0.130855       -0.000000 
 ---------------------------------------------------
   Sum:   -0.000000       -0.000000 
 ---------------------------------------------------
 
  
 NATURAL OCCUPATION NUMBERS (higher than 1.0E-05)
            1           2           3           4           5           6
    1   2.0000000   2.0000000   2.0000000   2.0000000   2.0000000   2.0000000
            7           8           9          10          11          12
    1   2.0000000   2.0000000   2.0000000   2.0000000   2.0000000   2.0000000
           13          14          15          16          17          18
    1   2.0000000   2.0000000   2.0000000   2.0000000   2.0000000   2.0000000
           19          20          21          22          23          24
    1   2.0000000   2.0000000   2.0000000   2.0000000   2.0000000   2.0000000
           25          26          27          28          29          30
    1   2.0000000   2.0000000   2.0000000   2.0000000   2.0000000   1.9538443
           31          32          33          34          35          36
    1   1.9218462   1.8906394   1.8257433   1.0807070   0.9244160   0.1919337
           37          38          39          40          41          42
    1   0.0943818   0.0835322   0.0228335   0.0028360   0.0019227   0.0018832
           43          44          45
    1   0.0014430   0.0012516   0.0007861
  
*** Unpaired Electrons
 Yamaguchi Nd:         3.51
 Head-Gordon Nu:       2.65
 Head-Gordon Nu_nl:    2.33
  
**************************************************
 RAS-CI total energy for state   8:   -383.356202001174
  Excitation energy (eV) =  5.405907171401
  State symmetry: Ag    (D2h      )
  <S^2>      :  0.0000
  Dipole Moment:    0.0000 X    -0.0000 Y    -0.0000 Z
  Trans. Moment:   -0.0000 X    -0.0000 Y    -0.0000 Z
  Strength   :  0.000000
  Natural transition orbitals ( 1 -> 8 ):
   e-/hole pair  1:  ampl =  0.373276 ( 13.9%)   [9 : 10]
   e-/hole pair  2:  ampl =  0.331645 ( 11.0%)   [8 : 11]
   Sum of square amplitudes: 0.36

 NATURAL OCCUPATION NUMBERS (higher than 1.0E-05)
            1           2           3           4           5           6
    1   2.0000000   2.0000000   2.0000000   2.0000000   2.0000000   2.0000000
            7           8           9          10          11          12
    1   2.0000000   2.0000000   2.0000000   2.0000000   2.0000000   2.0000000
           13          14          15          16          17          18
    1   2.0000000   2.0000000   2.0000000   2.0000000   2.0000000   2.0000000
           19          20          21          22          23          24
    1   2.0000000   2.0000000   2.0000000   2.0000000   2.0000000   2.0000000
           25          26          27          28          29          30
    1   2.0000000   2.0000000   2.0000000   2.0000000   2.0000000   1.9579269
           31          32          33          34          35          36
    1   1.8481211   1.7829746   1.7766588   1.2359964   0.8483406   0.2055223
           37          38          39          40          41          42
    1   0.1641193   0.1487276   0.0207478   0.0030885   0.0023111   0.0019368
           43          44          45
    1   0.0015223   0.0012213   0.0007846
Natural Orbitals stored in FCHK

  Amplitudes : 
  
 | HOLE  | ALPHA     | BETA      | PART  |    AMPLITUDE 
--------------------------------------------------
 |       | 111110000 | 111100001 |       |     2.2039426391359E-01
 |       | 111110000 | 111010010 |       |     1.4546461353269E-01
 |       | 111110000 | 110110100 |       |     1.5543631949319E-01
 |       | 111110000 | 110101010 |       |     1.0822500168732E-01
 |       | 111110000 | 101111000 |       |     2.6119350226815E-01
 |       | 111101000 | 111101000 |       |     6.4461025956524E-01
 |       | 111100010 | 110111000 |       |    -1.2367971946462E-01
 |       | 111100001 | 111110000 |       |     2.2039426391266E-01
 |       | 111010010 | 111110000 |       |     1.4546461353237E-01
 |       | 110111000 | 111100010 |       |    -1.2367971946458E-01
 |       | 110111000 | 110111000 |       |    -1.2351574653126E-01
 |       | 110110100 | 111110000 |       |     1.5543631949379E-01
 |       | 110101010 | 111110000 |       |     1.0822500168705E-01
 |       | 101111000 | 111110000 |       |     2.6119350226830E-01
--------------------------------------------------
*** Contributions RASCI wfn    Active:  95.24
                                 Hole:   0.00
                                 Part:   4.76

      Mulliken population analysis 
 ---------------------------------------------------
   Atom    Charge (a.u.)   Spin (a.u.)  
 ---------------------------------------------------
   1  C    0.091708       -0.000000 
   2  C    0.091708       -0.000000 
   3  C   -0.164734        0.000000 
   4  C   -0.136080       -0.000000 
   5  C   -0.136080       -0.000000 
   6  C   -0.164734        0.000000 
   7  C   -0.164734        0.000000 
   8  C   -0.164734        0.000000 
   9  C   -0.136080       -0.000000 
  10  C   -0.136080       -0.000000 
  11  H    0.130187        0.000000 
  12  H    0.124772       -0.000000 
  13  H    0.124772       -0.000000 
  14  H    0.130187        0.000000 
  15  H    0.130187       -0.000000 
  16  H    0.124772       -0.000000 
  17  H    0.124772       -0.000000 
  18  H    0.130187       -0.000000 
 ---------------------------------------------------
   Sum:   -0.000000        0.000000 
 ---------------------------------------------------
 
  
 NATURAL OCCUPATION NUMBERS (higher than 1.0E-05)
            1           2           3           4           5           6
    1   2.0000000   2.0000000   2.0000000   2.0000000   2.0000000   2.0000000
            7           8           9          10          11          12
    1   2.0000000   2.0000000   2.0000000   2.0000000   2.0000000   2.0000000
           13          14          15          16          17          18
    1   2.0000000   2.0000000   2.0000000   2.0000000   2.0000000   2.0000000
           19          20          21          22          23          24
    1   2.0000000   2.0000000   2.0000000   2.0000000   2.0000000   2.0000000
           25          26          27          28          29          30
    1   2.0000000   2.0000000   2.0000000   2.0000000   2.0000000   1.9579269
           31          32          33          34          35          36
    1   1.8481211   1.7829746   1.7766588   1.2359964   0.8483406   0.2055223
           37          38          39          40          41          42
    1   0.1641193   0.1487276   0.0207478   0.0030885   0.0023111   0.0019368
           43          44          45
    1   0.0015223   0.0012213   0.0007846
  
*** Unpaired Electrons
 Yamaguchi Nd:         4.08
 Head-Gordon Nu:       2.80
 Head-Gordon Nu_nl:    2.54
  
**************************************************
 RAS-CI total energy for state   9:   -383.352699782231
  Excitation energy (eV) =  5.501207397575
  State symmetry: B1g   (D2h      )
  <S^2>      :  0.0000
  Dipole Moment:   -0.0000 X    -0.0000 Y    -0.0000 Z
  Trans. Moment:   -0.0000 X    -0.0000 Y     0.0000 Z
  Strength   :  0.000000
  Natural transition orbitals ( 1 -> 9 ):
   e-/hole pair  1:  ampl =  0.568974 ( 32.4%)   [9 : 10]
   e-/hole pair  2:  ampl =  0.481522 ( 23.2%)   [8 : 11]
   Sum of square amplitudes: 0.56

 NATURAL OCCUPATION NUMBERS (higher than 1.0E-05)
            1           2           3           4           5           6
    1   2.0000000   2.0000000   2.0000000   2.0000000   2.0000000   2.0000000
            7           8           9          10          11          12
    1   2.0000000   2.0000000   2.0000000   2.0000000   2.0000000   2.0000000
           13          14          15          16          17          18
    1   2.0000000   2.0000000   2.0000000   2.0000000   2.0000000   2.0000000
           19          20          21          22          23          24
    1   2.0000000   2.0000000   2.0000000   2.0000000   2.0000000   2.0000000
           25          26          27          28          29          30
    1   2.0000000   2.0000000   2.0000000   2.0000000   2.0000000   1.9555886
           31          32          33          34          35          36
    1   1.9466456   1.7894644   1.6169180   1.2350815   0.7179791   0.4856479
           37          38          39          40          41          42
    1   0.1687394   0.0492582   0.0196539   0.0058231   0.0024288   0.0020133
           43          44          45
    1   0.0020107   0.0017722   0.0009754
Natural Orbitals stored in FCHK

  Amplitudes : 
  
 | HOLE  | ALPHA     | BETA      | PART  |    AMPLITUDE 
--------------------------------------------------
 |       | 111110000 | 111100010 |       |     4.1633442829538E-01
 |       | 111110000 | 110111000 |       |     3.5883609954750E-01
 |       | 111101000 | 111100100 |       |     1.8267580573558E-01
 |       | 111101000 | 111011000 |       |     2.0944934629144E-01
 |       | 111101000 | 011111000 |       |     1.2204846361594E-01
 |       | 111100100 | 111101000 |       |     1.8267580573564E-01
 |       | 111100010 | 111110000 |       |     4.1633442829524E-01
 |       | 111011000 | 111101000 |       |     2.0944934629144E-01
 |       | 110111000 | 111110000 |       |     3.5883609954745E-01
 |       | 011111000 | 111101000 |       |     1.2204846361597E-01
--------------------------------------------------
*** Contributions RASCI wfn    Active:  94.06
                                 Hole:   0.00
                                 Part:   5.94

      Mulliken population analysis 
 ---------------------------------------------------
   Atom    Charge (a.u.)   Spin (a.u.)  
 ---------------------------------------------------
   1  C    0.110742       -0.000000 
   2  C    0.110742       -0.000000 
   3  C   -0.172395        0.000000 
   4  C   -0.138127       -0.000000 
   5  C   -0.138127        0.000000 
   6  C   -0.172395       -0.000000 
   7  C   -0.172395        0.000000 
   8  C   -0.172395        0.000000 
   9  C   -0.138127       -0.000000 
  10  C   -0.138127        0.000000 
  11  H    0.129999       -0.000000 
  12  H    0.125152       -0.000000 
  13  H    0.125152       -0.000000 
  14  H    0.129999       -0.000000 
  15  H    0.129999       -0.000000 
  16  H    0.125152       -0.000000 
  17  H    0.125152       -0.000000 
  18  H    0.129999       -0.000000 
 ---------------------------------------------------
   Sum:   -0.000000        0.000000 
 ---------------------------------------------------
 
  
 NATURAL OCCUPATION NUMBERS (higher than 1.0E-05)
            1           2           3           4           5           6
    1   2.0000000   2.0000000   2.0000000   2.0000000   2.0000000   2.0000000
            7           8           9          10          11          12
    1   2.0000000   2.0000000   2.0000000   2.0000000   2.0000000   2.0000000
           13          14          15          16          17          18
    1   2.0000000   2.0000000   2.0000000   2.0000000   2.0000000   2.0000000
           19          20          21          22          23          24
    1   2.0000000   2.0000000   2.0000000   2.0000000   2.0000000   2.0000000
           25          26          27          28          29          30
    1   2.0000000   2.0000000   2.0000000   2.0000000   2.0000000   1.9555886
           31          32          33          34          35          36
    1   1.9466456   1.7894644   1.6169180   1.2350815   0.7179791   0.4856479
           37          38          39          40          41          42
    1   0.1687394   0.0492582   0.0196539   0.0058231   0.0024288   0.0020133
           43          44          45
    1   0.0020107   0.0017722   0.0009754
  
*** Unpaired Electrons
 Yamaguchi Nd:         4.26
 Head-Gordon Nu:       2.91
 Head-Gordon Nu_nl:    2.93
  
**************************************************
 RAS-CI total energy for state  10:   -383.351838165887
  Excitation energy (eV) =  5.524653171159
  State symmetry: B3u   (D2h      )
  <S^2>      :  2.0000
  Dipole Moment:   -0.0000 X     0.0000 Y    -0.0000 Z
  Trans. Moment:   -0.0000 X    -0.0000 Y    -0.0000 Z
  Strength   :  0.000000
  Natural transition orbitals ( 1 -> 10 ):
   e-/hole pair  1:  ampl =  0.661778 ( 43.8%)   [9 : 10]
   e-/hole pair  2:  ampl =  0.635412 ( 40.4%)   [8 : 11]
   Sum of square amplitudes: 0.86

 NATURAL OCCUPATION NUMBERS (higher than 1.0E-05)
            1           2           3           4           5           6
    1   2.0000000   2.0000000   2.0000000   2.0000000   2.0000000   2.0000000
            7           8           9          10          11          12
    1   2.0000000   2.0000000   2.0000000   2.0000000   2.0000000   2.0000000
           13          14          15          16          17          18
    1   2.0000000   2.0000000   2.0000000   2.0000000   2.0000000   2.0000000
           19          20          21          22          23          24
    1   2.0000000   2.0000000   2.0000000   2.0000000   2.0000000   2.0000000
           25          26          27          28          29          30
    1   2.0000000   2.0000000   2.0000000   2.0000000   2.0000000   1.9777083
           31          32          33          34          35          36
    1   1.9636047   1.9424072   1.4916472   1.4622772   0.5544115   0.4959624
           37          38          39          40          41          42
    1   0.0583226   0.0317234   0.0076345   0.0031952   0.0030087   0.0026782
           43          44          45
    1   0.0026623   0.0016969   0.0010597
Natural Orbitals stored in FCHK

  Amplitudes : 
  
 | HOLE  | ALPHA     | BETA      | PART  |    AMPLITUDE 
--------------------------------------------------
 |       | 111110000 | 111100100 |       |    -4.5098498476364E-01
 |       | 111110000 | 111011000 |       |     4.6790210787086E-01
 |       | 111100100 | 111110000 |       |     4.5098498476372E-01
 |       | 111011000 | 111110000 |       |    -4.6790210787050E-01
--------------------------------------------------
*** Contributions RASCI wfn    Active:  96.89
                                 Hole:   0.00
                                 Part:   3.11

      Mulliken population analysis 
 ---------------------------------------------------
   Atom    Charge (a.u.)   Spin (a.u.)  
 ---------------------------------------------------
   1  C    0.106729        0.000000 
   2  C    0.106729        0.000000 
   3  C   -0.159937       -0.000000 
   4  C   -0.148967        0.000000 
   5  C   -0.148967        0.000000 
   6  C   -0.159937       -0.000000 
   7  C   -0.159937       -0.000000 
   8  C   -0.159937       -0.000000 
   9  C   -0.148967        0.000000 
  10  C   -0.148967        0.000000 
  11  H    0.130700       -0.000000 
  12  H    0.124840        0.000000 
  13  H    0.124840        0.000000 
  14  H    0.130700       -0.000000 
  15  H    0.130700       -0.000000 
  16  H    0.124840        0.000000 
  17  H    0.124840        0.000000 
  18  H    0.130700       -0.000000 
 ---------------------------------------------------
   Sum:   -0.000000       -0.000000 
 ---------------------------------------------------
 
  
 NATURAL OCCUPATION NUMBERS (higher than 1.0E-05)
            1           2           3           4           5           6
    1   2.0000000   2.0000000   2.0000000   2.0000000   2.0000000   2.0000000
            7           8           9          10          11          12
    1   2.0000000   2.0000000   2.0000000   2.0000000   2.0000000   2.0000000
           13          14          15          16          17          18
    1   2.0000000   2.0000000   2.0000000   2.0000000   2.0000000   2.0000000
           19          20          21          22          23          24
    1   2.0000000   2.0000000   2.0000000   2.0000000   2.0000000   2.0000000
           25          26          27          28          29          30
    1   2.0000000   2.0000000   2.0000000   2.0000000   2.0000000   1.9777083
           31          32          33          34          35          36
    1   1.9636047   1.9424072   1.4916472   1.4622772   0.5544115   0.4959624
           37          38          39          40          41          42
    1   0.0583226   0.0317234   0.0076345   0.0031952   0.0030087   0.0026782
           43          44          45
    1   0.0026623   0.0016969   0.0010597
  
*** Unpaired Electrons
 Yamaguchi Nd:         3.54
 Head-Gordon Nu:       2.32
 Head-Gordon Nu_nl:    2.43
  
**************************************************
 RAS-CI total energy for state  11:   -383.350460832027
  Excitation energy (eV) =  5.562132332376
  State symmetry: Ag    (D2h      )
  <S^2>      :  2.0000
  Dipole Moment:    0.0000 X    -0.0000 Y     0.0000 Z
  Trans. Moment:    0.0000 X    -0.0000 Y    -0.0000 Z
  Strength   :  0.000000
  Natural transition orbitals ( 1 -> 11 ):
   e-/hole pair  1:  ampl =  0.570924 ( 32.6%)   [9 : 10]
   e-/hole pair  2:  ampl =  0.444858 ( 19.8%)   [8 : 11]
   Sum of square amplitudes: 0.80

 NATURAL OCCUPATION NUMBERS (higher than 1.0E-05)
            1           2           3           4           5           6
    1   2.0000000   2.0000000   2.0000000   2.0000000   2.0000000   2.0000000
            7           8           9          10          11          12
    1   2.0000000   2.0000000   2.0000000   2.0000000   2.0000000   2.0000000
           13          14          15          16          17          18
    1   2.0000000   2.0000000   2.0000000   2.0000000   2.0000000   2.0000000
           19          20          21          22          23          24
    1   2.0000000   2.0000000   2.0000000   2.0000000   2.0000000   2.0000000
           25          26          27          28          29          30
    1   2.0000000   2.0000000   2.0000000   2.0000000   2.0000000   1.9594687
           31          32          33          34          35          36
    1   1.7930457   1.7186370   1.6184506   1.5841081   0.5265834   0.2707591
           37          38          39          40          41          42
    1   0.2638644   0.2330973   0.0185698   0.0042664   0.0022641   0.0020688
           43          44          45
    1   0.0018289   0.0017462   0.0012416
Natural Orbitals stored in FCHK

  Amplitudes : 
  
 | HOLE  | ALPHA     | BETA      | PART  |    AMPLITUDE 
--------------------------------------------------
 |       | 111110000 | 111100001 |       |    -2.9552592166045E-01
 |       | 111110000 | 111010010 |       |     2.4421052241460E-01
 |       | 111110000 | 110110100 |       |    -2.2914003093558E-01
 |       | 111110000 | 101111000 |       |     3.8597930500154E-01
 |       | 111100100 | 111011000 |       |    -1.4499006604487E-01
 |       | 111100001 | 111110000 |       |     2.9552592166053E-01
 |       | 111100001 | 101111000 |       |     1.6344154359808E-01
 |       | 111011000 | 111100100 |       |     1.4499006604498E-01
 |       | 111010010 | 111110000 |       |    -2.4421052241430E-01
 |       | 110110100 | 111110000 |       |     2.2914003093573E-01
 |       | 101111000 | 111110000 |       |    -3.8597930500150E-01
 |       | 101111000 | 111100001 |       |    -1.6344154359809E-01
--------------------------------------------------
*** Contributions RASCI wfn    Active:  95.06
                                 Hole:   0.00
                                 Part:   4.94

      Mulliken population analysis 
 ---------------------------------------------------
   Atom    Charge (a.u.)   Spin (a.u.)  
 ---------------------------------------------------
   1  C    0.094566        0.000000 
   2  C    0.094566       -0.000000 
   3  C   -0.166800       -0.000000 
   4  C   -0.135239        0.000000 
   5  C   -0.135239        0.000000 
   6  C   -0.166800       -0.000000 
   7  C   -0.166800       -0.000000 
   8  C   -0.166800        0.000000 
   9  C   -0.135239        0.000000 
  10  C   -0.135239        0.000000 
  11  H    0.130328       -0.000000 
  12  H    0.124428        0.000000 
  13  H    0.124428        0.000000 
  14  H    0.130328       -0.000000 
  15  H    0.130328       -0.000000 
  16  H    0.124428        0.000000 
  17  H    0.124428        0.000000 
  18  H    0.130328       -0.000000 
 ---------------------------------------------------
   Sum:   -0.000000       -0.000000 
 ---------------------------------------------------
 
  
 NATURAL OCCUPATION NUMBERS (higher than 1.0E-05)
            1           2           3           4           5           6
    1   2.0000000   2.0000000   2.0000000   2.0000000   2.0000000   2.0000000
            7           8           9          10          11          12
    1   2.0000000   2.0000000   2.0000000   2.0000000   2.0000000   2.0000000
           13          14          15          16          17          18
    1   2.0000000   2.0000000   2.0000000   2.0000000   2.0000000   2.0000000
           19          20          21          22          23          24
    1   2.0000000   2.0000000   2.0000000   2.0000000   2.0000000   2.0000000
           25          26          27          28          29          30
    1   2.0000000   2.0000000   2.0000000   2.0000000   2.0000000   1.9594687
           31          32          33          34          35          36
    1   1.7930457   1.7186370   1.6184506   1.5841081   0.5265834   0.2707591
           37          38          39          40          41          42
    1   0.2638644   0.2330973   0.0185698   0.0042664   0.0022641   0.0020688
           43          44          45
    1   0.0018289   0.0017462   0.0012416
  
*** Unpaired Electrons
 Yamaguchi Nd:         4.39
 Head-Gordon Nu:       2.65
 Head-Gordon Nu_nl:    2.40
  
**************************************************
 RAS-CI total energy for state  12:   -383.326013376520
  Excitation energy (eV) =  6.227381443527
  State symmetry: Ag    (D2h      )
  <S^2>      :  2.0000
  Dipole Moment:   -0.0000 X    -0.0000 Y    -0.0000 Z
  Trans. Moment:   -0.0000 X    -0.0000 Y    -0.0000 Z
  Strength   :  0.000000
  Natural transition orbitals ( 1 -> 12 ):
   e-/hole pair  1:  ampl =  0.534259 ( 28.5%)   [9 : 10]
   e-/hole pair  2:  ampl =  0.464873 ( 21.6%)   [8 : 11]
   Sum of square amplitudes: 0.62

 NATURAL OCCUPATION NUMBERS (higher than 1.0E-05)
            1           2           3           4           5           6
    1   2.0000000   2.0000000   2.0000000   2.0000000   2.0000000   2.0000000
            7           8           9          10          11          12
    1   2.0000000   2.0000000   2.0000000   2.0000000   2.0000000   2.0000000
           13          14          15          16          17          18
    1   2.0000000   2.0000000   2.0000000   2.0000000   2.0000000   2.0000000
           19          20          21          22          23          24
    1   2.0000000   2.0000000   2.0000000   2.0000000   2.0000000   2.0000000
           25          26          27          28          29          30
    1   2.0000000   2.0000000   2.0000000   2.0000000   2.0000000   1.9395865
           31          32          33          34          35          36
    1   1.8397162   1.7017359   1.5969948   1.3991197   0.5420395   0.4485910
           37          38          39          40          41          42
    1   0.3753787   0.1150610   0.0275718   0.0047619   0.0025102   0.0024835
           43          44          45
    1   0.0017249   0.0016849   0.0010394
Natural Orbitals stored in FCHK

  Amplitudes : 
  
 | HOLE  | ALPHA     | BETA      | PART  |    AMPLITUDE 
--------------------------------------------------
 |       | 111110000 | 111100001 |       |     1.3708305925901E-01
 |       | 111110000 | 111010010 |       |     3.2765278907765E-01
 |       | 111110000 | 110110100 |       |    -2.9713805841779E-01
 |       | 111110000 | 101111000 |       |    -1.8581134651416E-01
 |       | 111110000 | 011110010 |       |     1.3141313419204E-01
 |       | 111100100 | 111011000 |       |     3.2076616074895E-01
 |       | 111100001 | 111110000 |       |    -1.3708305925998E-01
 |       | 111100001 | 101111000 |       |    -1.0763189178105E-01
 |       | 111011000 | 111100100 |       |    -3.2076616074691E-01
 |       | 111010010 | 111110000 |       |    -3.2765278907462E-01
 |       | 110110100 | 111110000 |       |     2.9713805842008E-01
 |       | 101111000 | 111110000 |       |     1.8581134651291E-01
 |       | 101111000 | 111100001 |       |     1.0763189178038E-01
 |       | 011110010 | 111110000 |       |    -1.3141313419166E-01
--------------------------------------------------
*** Contributions RASCI wfn    Active:  92.47
                                 Hole:   0.00
                                 Part:   7.53

      Mulliken population analysis 
 ---------------------------------------------------
   Atom    Charge (a.u.)   Spin (a.u.)  
 ---------------------------------------------------
   1  C    0.114784        0.000000 
   2  C    0.114784        0.000000 
   3  C   -0.165295       -0.000000 
   4  C   -0.147087        0.000000 
   5  C   -0.147087        0.000000 
   6  C   -0.165295       -0.000000 
   7  C   -0.165295       -0.000000 
   8  C   -0.165295       -0.000000 
   9  C   -0.147087        0.000000 
  10  C   -0.147087        0.000000 
  11  H    0.130251       -0.000000 
  12  H    0.124739        0.000000 
  13  H    0.124739        0.000000 
  14  H    0.130251       -0.000000 
  15  H    0.130251       -0.000000 
  16  H    0.124739        0.000000 
  17  H    0.124739        0.000000 
  18  H    0.130251       -0.000000 
 ---------------------------------------------------
   Sum:   -0.000000       -0.000000 
 ---------------------------------------------------
 
  
 NATURAL OCCUPATION NUMBERS (higher than 1.0E-05)
            1           2           3           4           5           6
    1   2.0000000   2.0000000   2.0000000   2.0000000   2.0000000   2.0000000
            7           8           9          10          11          12
    1   2.0000000   2.0000000   2.0000000   2.0000000   2.0000000   2.0000000
           13          14          15          16          17          18
    1   2.0000000   2.0000000   2.0000000   2.0000000   2.0000000   2.0000000
           19          20          21          22          23          24
    1   2.0000000   2.0000000   2.0000000   2.0000000   2.0000000   2.0000000
           25          26          27          28          29          30
    1   2.0000000   2.0000000   2.0000000   2.0000000   2.0000000   1.9395865
           31          32          33          34          35          36
    1   1.8397162   1.7017359   1.5969948   1.3991197   0.5420395   0.4485910
           37          38          39          40          41          42
    1   0.3753787   0.1150610   0.0275718   0.0047619   0.0025102   0.0024835
           43          44          45
    1   0.0017249   0.0016849   0.0010394
  
*** Unpaired Electrons
 Yamaguchi Nd:         4.80
 Head-Gordon Nu:       3.05
 Head-Gordon Nu_nl:    3.01
  
**************************************************
 RAS-CI total energy for state  13:   -383.318447122631
  Excitation energy (eV) =  6.433269687115
  State symmetry: B1g   (D2h      )
  <S^2>      :  2.0000
  Dipole Moment:    0.0000 X     0.0000 Y     0.0000 Z
[...]
 -- Singly Occupied (Occupied) --
 -0.326  -0.190
  1 Au    2 B2g                                                                
 -- Virtual --                   
  0.115   0.111   0.215   0.156   0.164   0.166   0.188   0.194
  2 B3g   3 B1u   2 Au   10 Ag    8 B2u   8 B3u  11 Ag    7 B1g                
  0.201   0.226   0.242   0.243   0.276   0.286   0.296   0.301
  9 B2u   9 B3u   8 B1g  12 Ag   10 B3u  10 B2u   3 B3g  13 Ag                 
  0.319   0.319   0.343   0.352   0.362   0.369   0.370   0.400
 11 B2u   4 B1u  11 B3u   3 B2g  14 Ag   15 Ag    9 B1g  10 B1g                
  0.391   0.400   0.415   0.429   0.459   0.460   0.462   0.465
  4 B3g   5 B1u   3 Au   12 B2u  16 Ag   12 B3u  13 B3u   6 B1u                
  0.476   0.472   0.480   0.503   0.509   0.505   0.545   0.547
 17 Ag    4 B2g  14 B3u  13 B2u  14 B2u   5 B3g  15 B2u  11 B1g                
  0.550   0.564   0.572   0.579   0.588   0.604   0.606   0.615
  4 Au   15 B3u  12 B1g  18 Ag   19 Ag   13 B1g  16 B2u   6 B3g                
  0.632   0.633   0.637   0.650   0.651   0.676   0.683   0.710
 17 B2u  16 B3u   5 B2g  20 Ag   14 B1g  18 B2u  17 B3u   7 B1u                
  0.712   0.729   0.753   0.785   0.832   0.843   0.851   0.855
 15 B1g  18 B3u  21 Ag   16 B1g  19 B2u  20 B2u  22 Ag    8 B1u                
  0.870   0.874   0.877   0.896   0.904   0.922   0.923   0.921
 19 B3u  21 B2u  17 B1g   6 B2g  18 B1g  20 B3u  23 Ag    7 B3g                
  0.928   0.946   0.983   0.997   1.019   1.027   1.047   1.052
  5 Au   22 B2u  19 B1g   7 B2g  21 B3u  24 Ag   25 Ag   23 B2u                
  1.067   1.087   1.091   1.110   1.119   1.165   1.175   1.184
  6 Au    9 B1u  20 B1g  26 Ag   22 B3u  23 B3u  10 B1u  24 B2u                
  1.195   1.201   1.267   1.293   1.313   1.332   1.344   1.370
 27 Ag    8 B3g  25 B2u  21 B1g   9 B3g  28 Ag    7 Au    8 B2g                
  1.401   1.399   1.417   1.427   1.438   1.443   1.459   1.469
 22 B1g  24 B3u   9 B2g  25 B3u  29 Ag   26 B2u  23 B1g  10 B3g                
  1.472   1.479   1.497   1.502   1.572   1.584   1.609   1.636
 27 B2u  11 B1u  26 B3u  30 Ag   28 B2u   8 Au   24 B1g  29 B2u                
  1.639   1.647   1.690   1.697   1.748   1.752   1.757   1.763
 31 Ag   25 B1g  12 B1u  27 B3u  10 B2g   9 Au   32 Ag   30 B2u                
  1.766   1.782   1.784   1.823   1.826   1.846   1.865   1.888
 26 B1g  28 B3u  11 B3g  13 B1u  27 B1g  33 Ag   10 Au   31 B2u                
  1.914   1.948   1.946   1.954   1.959   1.958   1.983   1.989
 12 B3g  34 Ag   11 B2g  29 B3u  32 B2u  14 B1u  13 B3g  28 B1g                
  2.008   2.024   2.026   2.111   2.125   2.130   2.160   2.193
 33 B2u  30 B3u  12 B2g  11 Au   35 Ag   15 B1u  14 B3g  12 Au                 
  2.248   2.249   2.254   2.275   2.281   2.288   2.321   2.393
 16 B1u  34 B2u  31 B3u  15 B3g  29 B1g  36 Ag   13 B2g  37 Ag                 
  2.427   2.439   2.446   2.452   2.455   2.457   2.531   2.534
 32 B3u  38 Ag   30 B1g  33 B3u  31 B1g  35 B2u  32 B1g  34 B3u                
  2.554   2.562   2.564   2.598   2.617   2.661   2.724   2.724
 39 Ag   16 B3g  36 B2u  35 B3u  17 B1u  13 Au   40 Ag   37 B2u                
  2.738   2.771   2.777   2.837   2.857   2.863   2.871   2.899
 41 Ag   14 B2g  36 B3u  33 B1g  38 B2u  15 B2g  37 B3u  42 Ag                 
  2.913   2.919   2.930   2.941   2.942   2.964   2.967   3.005
 38 B3u  34 B1g  39 B2u  43 Ag   18 B1u  35 B1g  17 B3g  14 Au                 
  3.012   3.033   3.035   3.052   3.070   3.076   3.097   3.104
 16 B2g  44 Ag   40 B2u  19 B1u  39 B3u  41 B2u  18 B3g  20 B1u                
  3.110   3.113   3.122   3.128   3.135   3.170   3.196   3.198
 45 Ag   36 B1g  17 B2g  40 B3u  42 B2u  37 B1g  43 B2u  21 B1u                
  3.202   3.208   3.217   3.230   3.267   3.286   3.302   3.314
 15 Au   41 B3u  46 Ag   16 Au   38 B1g  18 B2g  44 B2u  39 B1g                
  3.314   3.316   3.324   3.363   3.389   3.415   3.423   3.437
 19 B3g  47 Ag   22 B1u  23 B1u  42 B3u  19 B2g  48 Ag   43 B3u                
  3.466   3.467   3.503   3.504   3.512   3.518   3.523   3.538
 20 B3g  40 B1g  45 B2u  20 B2g  17 Au   21 B3g  49 Ag   46 B2u                
  3.539   3.557   3.559   3.563   3.582   3.625   3.646   3.651
 24 B1u  44 B3u  50 Ag   41 B1g  18 Au   45 B3u  25 B1u  21 B2g                
  3.655   3.661   3.679   3.688   3.694   3.700   3.747   3.752
 47 B2u  51 Ag   42 B1g  52 Ag   22 B3g  46 B3u  43 B1g  19 Au                 
  3.774   3.794   3.799   3.808   3.813   3.845   3.853   3.860
 48 B2u  20 Au   22 B2g  47 B3u  23 B3g  49 B2u  23 B2g  26 B1u                
  3.890   3.905   3.914   3.951   3.972   3.987   4.013   4.054
 24 B3g  50 B2u  44 B1g  48 B3u  45 B1g  53 Ag   51 B2u  21 Au                 
  4.073   4.100   4.149   4.170   4.177   4.184   4.242   4.273
 54 Ag   27 B1u  52 B2u  22 Au   46 B1g  49 B3u  25 B3g  55 Ag                 
  4.278   4.299   4.336   4.364   4.381   4.397   4.420   4.458
 53 B2u  50 B3u  47 B1g  56 Ag   48 B1g  24 B2g  51 B3u  49 B1g                
  4.467   4.485   4.509   4.518   4.538   4.550   4.570   4.600
 26 B3g  28 B1u  57 Ag   54 B2u  55 B2u  50 B1g  58 Ag   29 B1u                
  4.614   4.622   4.642   4.681   4.733   4.751   4.763   4.801
 23 Au   25 B2g  27 B3g  52 B3u  24 Au   53 B3u  59 Ag   51 B1g                
  4.883   4.887   4.995   5.063   5.076   5.094   5.096   5.113
 28 B3g  56 B2u  54 B3u  57 B2u  60 Ag   29 B3g  25 Au   55 B3u                
  5.150   5.155   5.230   5.301   5.399   5.416   5.424   5.454
 61 Ag   58 B2u  52 B1g  56 B3u  59 B2u  62 Ag   53 B1g  60 B2u                
  5.553   5.660   5.689   5.715   5.746   5.966   5.971   6.061
 63 Ag   54 B1g  61 B2u  55 B1g  57 B3u  62 B2u  56 B1g  63 B2u                
  6.301  22.969  23.490  23.590  23.683  23.777  23.874  23.925
 57 B1g  64 Ag   58 B3u  65 Ag   59 B3u  58 B1g  64 B2u  66 Ag                 
 23.978  23.998  24.664
 59 B1g  65 B2u  66 B2u                                                        
 
 Beta MOs, Restricted
 -- Doubly Occupied --           
-11.246 -11.245 -11.244 -11.244 -11.244 -11.244 -11.238 -11.238
  1 Ag    1 B2u   1 B3u   1 B1g   2 Ag    2 B2u   2 B3u   3 Ag                 
-11.236 -11.236  -1.178  -1.112  -1.055  -1.021  -0.976  -0.879
  2 B1g   3 B2u   4 Ag    3 B3u   4 B2u   5 Ag    3 B1g   4 B3u                
 -0.830  -0.818  -0.716  -0.701  -0.675  -0.630  -0.618  -0.586
  5 B2u   6 Ag    4 B1g   5 B3u   7 Ag    6 B2u   8 Ag    6 B3u                
 -0.583  -0.554  -0.540  -0.485  -0.486  -0.555  -0.465  -0.423
  5 B1g   7 B2u   7 B3u   9 Ag    6 B1g   1 B1u   1 B2g   1 B3g                
 -0.362
  2 B1u                                                                        
 -- Singly Occupied (Vacant) --  
 -0.326  -0.190
  1 Au    2 B2g                                                                
 -- Virtual --                   
  0.115   0.111   0.215   0.156   0.164   0.166   0.188   0.194
  2 B3g   3 B1u   2 Au   10 Ag    8 B2u   8 B3u  11 Ag    7 B1g                
  0.201   0.226   0.242   0.243   0.276   0.286   0.296   0.301
  9 B2u   9 B3u   8 B1g  12 Ag   10 B3u  10 B2u   3 B3g  13 Ag                 
  0.319   0.319   0.343   0.352   0.362   0.369   0.370   0.400
 11 B2u   4 B1u  11 B3u   3 B2g  14 Ag   15 Ag    9 B1g  10 B1g                
  0.391   0.400   0.415   0.429   0.459   0.460   0.462   0.465
  4 B3g   5 B1u   3 Au   12 B2u  16 Ag   12 B3u  13 B3u   6 B1u                
  0.476   0.472   0.480   0.503   0.509   0.505   0.545   0.547
 17 Ag    4 B2g  14 B3u  13 B2u  14 B2u   5 B3g  15 B2u  11 B1g                
  0.550   0.564   0.572   0.579   0.588   0.604   0.606   0.615
  4 Au   15 B3u  12 B1g  18 Ag   19 Ag   13 B1g  16 B2u   6 B3g                
  0.632   0.633   0.637   0.650   0.651   0.676   0.683   0.710
 17 B2u  16 B3u   5 B2g  20 Ag   14 B1g  18 B2u  17 B3u   7 B1u                
  0.712   0.729   0.753   0.785   0.832   0.843   0.851   0.855
 15 B1g  18 B3u  21 Ag   16 B1g  19 B2u  20 B2u  22 Ag    8 B1u                
  0.870   0.874   0.877   0.896   0.904   0.922   0.923   0.921
 19 B3u  21 B2u  17 B1g   6 B2g  18 B1g  20 B3u  23 Ag    7 B3g                
  0.928   0.946   0.983   0.997   1.019   1.027   1.047   1.052
  5 Au   22 B2u  19 B1g   7 B2g  21 B3u  24 Ag   25 Ag   23 B2u                
  1.067   1.087   1.091   1.110   1.119   1.165   1.175   1.184
  6 Au    9 B1u  20 B1g  26 Ag   22 B3u  23 B3u  10 B1u  24 B2u                
  1.195   1.201   1.267   1.293   1.313   1.332   1.344   1.370
 27 Ag    8 B3g  25 B2u  21 B1g   9 B3g  28 Ag    7 Au    8 B2g                
  1.401   1.399   1.417   1.427   1.438   1.443   1.459   1.469
 22 B1g  24 B3u   9 B2g  25 B3u  29 Ag   26 B2u  23 B1g  10 B3g                
  1.472   1.479   1.497   1.502   1.572   1.584   1.609   1.636
 27 B2u  11 B1u  26 B3u  30 Ag   28 B2u   8 Au   24 B1g  29 B2u                
  1.639   1.647   1.690   1.697   1.748   1.752   1.757   1.763
 31 Ag   25 B1g  12 B1u  27 B3u  10 B2g   9 Au   32 Ag   30 B2u                
  1.766   1.782   1.784   1.823   1.826   1.846   1.865   1.888
 26 B1g  28 B3u  11 B3g  13 B1u  27 B1g  33 Ag   10 Au   31 B2u                
  1.914   1.948   1.946   1.954   1.959   1.958   1.983   1.989
 12 B3g  34 Ag   11 B2g  29 B3u  32 B2u  14 B1u  13 B3g  28 B1g                
  2.008   2.024   2.026   2.111   2.125   2.130   2.160   2.193
 33 B2u  30 B3u  12 B2g  11 Au   35 Ag   15 B1u  14 B3g  12 Au                 
  2.248   2.249   2.254   2.275   2.281   2.288   2.321   2.393
 16 B1u  34 B2u  31 B3u  15 B3g  29 B1g  36 Ag   13 B2g  37 Ag                 
  2.427   2.439   2.446   2.452   2.455   2.457   2.531   2.534
 32 B3u  38 Ag   30 B1g  33 B3u  31 B1g  35 B2u  32 B1g  34 B3u                
  2.554   2.562   2.564   2.598   2.617   2.661   2.724   2.724
 39 Ag   16 B3g  36 B2u  35 B3u  17 B1u  13 Au   40 Ag   37 B2u                
  2.738   2.771   2.777   2.837   2.857   2.863   2.871   2.899
 41 Ag   14 B2g  36 B3u  33 B1g  38 B2u  15 B2g  37 B3u  42 Ag                 
  2.913   2.919   2.930   2.941   2.942   2.964   2.967   3.005
 38 B3u  34 B1g  39 B2u  43 Ag   18 B1u  35 B1g  17 B3g  14 Au                 
  3.012   3.033   3.035   3.052   3.070   3.076   3.097   3.104
 16 B2g  44 Ag   40 B2u  19 B1u  39 B3u  41 B2u  18 B3g  20 B1u                
  3.110   3.113   3.122   3.128   3.135   3.170   3.196   3.198
 45 Ag   36 B1g  17 B2g  40 B3u  42 B2u  37 B1g  43 B2u  21 B1u                
  3.202   3.208   3.217   3.230   3.267   3.286   3.302   3.314
 15 Au   41 B3u  46 Ag   16 Au   38 B1g  18 B2g  44 B2u  39 B1g                
  3.314   3.316   3.324   3.363   3.389   3.415   3.423   3.437
 19 B3g  47 Ag   22 B1u  23 B1u  42 B3u  19 B2g  48 Ag   43 B3u                
  3.466   3.467   3.503   3.504   3.512   3.518   3.523   3.538
 20 B3g  40 B1g  45 B2u  20 B2g  17 Au   21 B3g  49 Ag   46 B2u                
  3.539   3.557   3.559   3.563   3.582   3.625   3.646   3.651
 24 B1u  44 B3u  50 Ag   41 B1g  18 Au   45 B3u  25 B1u  21 B2g                
  3.655   3.661   3.679   3.688   3.694   3.700   3.747   3.752
 47 B2u  51 Ag   42 B1g  52 Ag   22 B3g  46 B3u  43 B1g  19 Au                 
  3.774   3.794   3.799   3.808   3.813   3.845   3.853   3.860
 48 B2u  20 Au   22 B2g  47 B3u  23 B3g  49 B2u  23 B2g  26 B1u                
  3.890   3.905   3.914   3.951   3.972   3.987   4.013   4.054
 24 B3g  50 B2u  44 B1g  48 B3u  45 B1g  53 Ag   51 B2u  21 Au                 
  4.073   4.100   4.149   4.170   4.177   4.184   4.242   4.273
 54 Ag   27 B1u  52 B2u  22 Au   46 B1g  49 B3u  25 B3g  55 Ag                 
  4.278   4.299   4.336   4.364   4.381   4.397   4.420   4.458
 53 B2u  50 B3u  47 B1g  56 Ag   48 B1g  24 B2g  51 B3u  49 B1g                
  4.467   4.485   4.509   4.518   4.538   4.550   4.570   4.600
 26 B3g  28 B1u  57 Ag   54 B2u  55 B2u  50 B1g  58 Ag   29 B1u                
  4.614   4.622   4.642   4.681   4.733   4.751   4.763   4.801
 23 Au   25 B2g  27 B3g  52 B3u  24 Au   53 B3u  59 Ag   51 B1g                
  4.883   4.887   4.995   5.063   5.076   5.094   5.096   5.113
 28 B3g  56 B2u  54 B3u  57 B2u  60 Ag   29 B3g  25 Au   55 B3u                
  5.150   5.155   5.230   5.301   5.399   5.416   5.424   5.454
 61 Ag   58 B2u  52 B1g  56 B3u  59 B2u  62 Ag   53 B1g  60 B2u                
  5.553   5.660   5.689   5.715   5.746   5.966   5.971   6.061
 63 Ag   54 B1g  61 B2u  55 B1g  57 B3u  62 B2u  56 B1g  63 B2u                
  6.301  22.969  23.490  23.590  23.683  23.777  23.874  23.925
 57 B1g  64 Ag   58 B3u  65 Ag   59 B3u  58 B1g  64 B2u  66 Ag                 
 23.978  23.998  24.664
 59 B1g  65 B2u  66 B2u                                                        
 --------------------------------------------------------------
 
          Ground-State Mulliken Net Atomic Charges

     Atom                 Charge (a.u.)
  ----------------------------------------
      1 C                     0.099787
      2 C                     0.099787
      3 C                    -0.169122
      4 C                    -0.136647
      5 C                    -0.136647
      6 C                    -0.169122
      7 C                    -0.169122
      8 C                    -0.169122
      9 C                    -0.136647
     10 C                    -0.136647
     11 H                     0.130526
     12 H                     0.125349
     13 H                     0.125349
     14 H                     0.130526
     15 H                     0.130526
     16 H                     0.125349
     17 H                     0.125349
     18 H                     0.130526
  ----------------------------------------
  Sum of atomic charges =     0.000000

  Do orbital-by-orbital Lowdin population analysis
 
 
 Partial Mulliken analysis unavailable for frozen orbitals
 
 -----------------------------------------------------------------
                    Cartesian Multipole Moments
 -----------------------------------------------------------------
    Charge (ESU x 10^10)
                -0.0000
    Dipole Moment (Debye)
         X       0.0000      Y       0.0000      Z       0.0000
       Tot       0.0000
    Quadrupole Moments (Debye-Ang)
        XX     -52.6086     XY       0.0000     YY     -51.1495
        XZ      -0.0000     YZ      -0.0000     ZZ     -65.8565
    Octopole Moments (Debye-Ang^2)
       XXX       0.0000    XXY       0.0000    XYY       0.0000
       YYY       0.0000    XXZ       0.0000    XYZ       0.0000
       YYZ       0.0000    XZZ       0.0000    YZZ       0.0000
       ZZZ       0.0000
    Hexadecapole Moments (Debye-Ang^3)
      XXXX   -1148.2205   XXXY       0.0000   XXYY    -262.9239
      XYYY       0.0000   YYYY    -474.6156   XXXZ       0.0000
      XXYZ      -0.0000   XYYZ      -0.0000   YYYZ      -0.0000
      XXZZ    -255.6221   XYZZ       0.0000   YYZZ    -113.2361
      XZZZ      -0.0000   YZZZ      -0.0000   ZZZZ     -80.5268
 -----------------------------------------------------------------
 Mayer SCF Bond Order, atomic valence on the diagonal:

            1           2           3           4           5           6
    1   2.0734337   0.2183941   0.3141953   0.0293121  -0.0010059  -0.0347648
    2   0.2183941   3.9844837  -0.0358345   0.0199615   0.0078607   1.4196573
    3   0.3141953  -0.0358345   3.6626136   1.0776706   0.0424306  -0.0210459
    4   0.0293121   0.0199615   1.0776706   3.9197002   1.7543206   0.0424306
    5  -0.0010059   0.0078607   0.0424306   1.7543206   3.9197002   1.0776706
    6  -0.0347648   1.4196573  -0.0210459   0.0424306   1.0776706   3.6626136
    7   0.0029628   1.4196573   0.0511002   0.0256418   0.0157536   0.1159187
    8   0.3207228  -0.0358345   0.1159187   0.0157536   0.0256418   0.0511002
    9   0.0158258   0.0199615   0.0157536   0.0036535   0.0032165   0.0256418
   10  -0.0185594   0.0078607   0.0256418   0.0032165   0.0036535   0.0157536
   11  -0.0232146   0.0069533   0.0039735   0.0001232   0.0000313   0.0008810
   12   0.0020178   0.0004206   0.0003024   0.0002330   0.0000161   0.0003137
   13   0.0029238   0.0048238   0.0003137   0.0000161   0.0002330   0.0003024
   14   0.0001458  -0.0167202   0.0008810   0.0000313   0.0001232   0.0039735
   15  -0.0011512   0.0069533   0.9780074  -0.0139398   0.0049096   0.0002573
   16   0.0082621   0.0004206  -0.0194416   0.9833247  -0.0055076   0.0070273
   17   0.0018173   0.0048238   0.0070273  -0.0055076   0.9833247  -0.0194416
   18   0.0067370  -0.0167202   0.0002573   0.0049096  -0.0139398   0.9780074
            7           8           9          10          11          12
    1   0.0029628   0.3207228   0.0158258  -0.0185594  -0.0232146   0.0020178
    2   1.4196573  -0.0358345   0.0199615   0.0078607   0.0069533   0.0004206
    3   0.0511002   0.1159187   0.0157536   0.0256418   0.0039735   0.0003024
    4   0.0256418   0.0157536   0.0036535   0.0032165   0.0001232   0.0002330
    5   0.0157536   0.0256418   0.0032165   0.0036535   0.0000313   0.0000161
    6   0.1159187   0.0511002   0.0256418   0.0157536   0.0008810   0.0003137
    7   3.6626136  -0.0210459   0.0424306   1.0776706   0.0002573   0.0070273
    8  -0.0210459   3.6626136   1.0776706   0.0424306   0.9780074  -0.0194416
    9   0.0424306   1.0776706   3.9197002   1.7543206  -0.0139398   0.9833247
   10   1.0776706   0.0424306   1.7543206   3.9197002   0.0049096  -0.0055076
   11   0.0002573   0.9780074  -0.0139398   0.0049096   0.9677526  -0.0003562
   12   0.0070273  -0.0194416   0.9833247  -0.0055076  -0.0003562   0.9716985
   13  -0.0194416   0.0070273  -0.0055076   0.9833247   0.0006708  -0.0001790
   14   0.9780074   0.0002573   0.0049096  -0.0139398   0.0000001   0.0006708
   15   0.0008810   0.0039735   0.0001232   0.0000313   0.0026817  -0.0000107
   16   0.0003137   0.0003024   0.0002330   0.0000161  -0.0000107   0.0000393
   17   0.0003024   0.0003137   0.0000161   0.0002330   0.0000131   0.0000088
   18   0.0039735   0.0008810   0.0000313   0.0001232   0.0002771   0.0000131
           13          14          15          16          17          18
    1   0.0029238   0.0001458  -0.0011512   0.0082621   0.0018173   0.0067370
    2   0.0048238  -0.0167202   0.0069533   0.0004206   0.0048238  -0.0167202
    3   0.0003137   0.0008810   0.9780074  -0.0194416   0.0070273   0.0002573
    4   0.0000161   0.0000313  -0.0139398   0.9833247  -0.0055076   0.0049096
    5   0.0002330   0.0001232   0.0049096  -0.0055076   0.9833247  -0.0139398
    6   0.0003024   0.0039735   0.0002573   0.0070273  -0.0194416   0.9780074
    7  -0.0194416   0.9780074   0.0008810   0.0003137   0.0003024   0.0039735
    8   0.0070273   0.0002573   0.0039735   0.0003024   0.0003137   0.0008810
    9  -0.0055076   0.0049096   0.0001232   0.0002330   0.0000161   0.0000313
   10   0.9833247  -0.0139398   0.0000313   0.0000161   0.0002330   0.0001232
   11   0.0006708   0.0000001   0.0026817  -0.0000107   0.0000131   0.0002771
   12  -0.0001790   0.0006708  -0.0000107   0.0000393   0.0000088   0.0000131
   13   0.9716985  -0.0003562   0.0000131   0.0000088   0.0000393  -0.0000107
   14  -0.0003562   0.9677526   0.0002771   0.0000131  -0.0000107   0.0026817
   15   0.0000131   0.0002771   0.9677526  -0.0003562   0.0006708   0.0000001
   16   0.0000088   0.0000131  -0.0003562   0.9716985  -0.0001790   0.0006708
   17   0.0000393  -0.0000107   0.0006708  -0.0001790   0.9716985  -0.0003562
   18  -0.0000107   0.0026817   0.0000001   0.0006708  -0.0003562   0.9677526


 Total job time:  84730.79s(wall), 68310.27s(cpu) 
 Sat Sep 23 17:15:22 2023

        *************************************************************
        *                                                           *
        *  Thank you very much for using Q-Chem.  Have a nice day.  *
        *                                                           *
        *************************************************************


