                  Welcome to Q-Chem
     A Quantum Leap Into The Future Of Chemistry


 Q-Chem 6.0 (devel), Q-Chem, Inc., Pleasanton, CA (2022)

 E. Epifanovsky,  A. T. B. Gilbert,  Xintian Feng,  Joonho Lee,  Yuezhi Mao,  
 N. Mardirossian,  P. Pokhilko,  A. White,  M. Wormit,  M. P. Coons,  
 A. L. Dempwolff,  Zhengting Gan,  D. Hait,  P. R. Horn,  L. D. Jacobson,  
 I. Kaliman,  J. Kussmann,  A. W. Lange,  Ka Un Lao,  D. S. Levine,  Jie Liu,  
 S. C. McKenzie,  A. F. Morrison,  K. Nanda,  F. Plasser,  D. R. Rehn,  
 M. L. Vidal,  Zhi-Qiang You,  Ying Zhu,  B. Alam,  B. Albrecht,  
 A. Aldossary,  E. Alguire,  J. H. Andersen,  V. Athavale,  D. Barton,  
 K. Begam,  A. Behn,  N. Bellonzi,  Y. A. Bernard,  E. J. Berquist,  
 H. Burton,  A. Carreras,  K. Carter-Fenk,  Romit Chakraborty,  
 Chandrima Chakravarty,  Junhan Chen,  A. D. Chien,  K. D. Closser,  
 V. Cofer-Shabica,  L. Cunha,  S. Dasgupta,  Jia Deng,  M. de Wergifosse,  
 M. Diedenhofen,  Hainam Do,  S. Ehlert,  Po-Tung Fang,  S. Fatehi,  
 Qingguo Feng,  T. Friedhoff,  B. Ganoe,  J. Gayvert,  Qinghui Ge,  
 G. Gidofalvi,  M. Goldey,  J. Gomes,  C. Gonzalez-Espinoza,  S. Gulania,  
 A. Gunina,  J. A. Gyamfi,  M. W. D. Hanson-Heine,  P. H. P. Harbach,  
 A. W. Hauser,  M. F. Herbst,  M. Hernandez Vera,  M. Hodecker,  
 Z. C. Holden,  S. Houck,  Xunkun Huang,  Kerwin Hui,  B. C. Huynh,  
 K. Ikeda,  M. Ivanov,  Hyunjun Ji,  Zuxin Jin,  Hanjie Jiang,  B. Kaduk,  
 S. Kaehler,  R. Kang,  K. Khistyaev,  Jaehoon Kim,  Yongbin Kim,  
 P. Klunzinger,  Z. Koczor-Benda,  Joong Hoon Koh,  D. Kosenkov,  
 Saikiran Kotaru,  L. Koulias,  T. Kowalczyk,  C. M. Krauter,  K. Kue,  
 A. Kunitsa,  T. Kus,  A. Landau,  K. V. Lawler,  D. Lefrancois,  S. Lehtola,  
 Rain Li,  Shaozhi Li,  Yi-Pei Li,  Jiashu Liang,  M. Liebenthal,  
 Hung-Hsuan Lin,  You-Sheng Lin,  Fenglai Liu,  Kuan-Yu Liu,  
 M. Loipersberger,  A. Luenser,  C. Malbon,  A. Manjanath,  P. Manohar,  
 E. Mansoor,  S. F. Manzer,  Shan-Ping Mao,  A. V. Marenich,  T. Markovich,  
 S. Mason,  F. Matz,  S. A. Maurer,  P. F. McLaughlin,  M. F. S. J. Menger,  
 J.-M. Mewes,  S. A. Mewes,  P. Morgante,  Mohammad Mostafanejad,  
 J. W. Mullinax,  K. J. Oosterbaan,  G. Paran,  V. Parravicini,  
 Alexander C. Paul,  Suranjan K. Paul,  F. Pavosevic,  Zheng Pei,  S. Prager,  
 E. I. Proynov,  E. Ramos,  B. Rana,  A. E. Rask,  A. Rettig,  R. M. Richard,  
 F. Rob,  E. Rossomme,  T. Scheele,  M. Scheurer,  M. Schneider,  
 P. E. Schneider,  N. Sergueev,  S. M. Sharada,  Hengyuan Shen,  
 W. Skomorowski,  D. W. Small,  C. J. Stein,  Yingli Su,  Yu-Chuan Su,  
 E. J. Sundstrom,  Zhen Tao,  J. Thirman,  Hung-Yi Tsai,  T. Tsuchimochi,  
 N. M. Tubman,  C. Utku,  S. P. Veccham,  O. Vydrov,  J. Wenzel,  
 Jonathan Wong,  J. Witte,  A. Yamada,  Chou-Hsun Yang,  Kun Yao,  
 S. Yeganeh,  S. R. Yost,  A. Zech,  F. Zeller,  Igor Ying Zhang,  
 Xing Zhang,  Yu Zhang,  D. Zuev,  A. Aspuru-Guzik,  A. T. Bell,  
 N. A. Besley,  K. B. Bravaya,  B. R. Brooks,  D. Casanova,  Jeng-Da Chai,  
 Hsing-Ta Chen,  S. Coriani,  C. J. Cramer,  A. E. DePrince, III,  
 R. A. DiStasio Jr.,  A. Dreuw,  B. D. Dunietz,  T. R. Furlani,  
 W. A. Goddard III,  S. Grimme,  S. Hammes-Schiffer,  T. Head-Gordon,  
 W. J. Hehre,  Chao-Ping Hsu,  T.-C. Jagau,  Yousung Jung,  A. Klamt,  
 Jing Kong,  D. S. Lambrecht,  Xiangyuan Li,  WanZhen Liang,  N. J. Mayhall,  
 C. W. McCurdy,  J. B. Neaton,  T. Neudecker,  C. Ochsenfeld,  
 J. A. Parkhill,  R. Peverati,  V. A. Rassolov,  Haisheng Ren,  Yihan Shao,  
 L. V. Slipchenko,  R. P. Steele,  J. E. Subotnik,  A. J. W. Thom,  
 A. Tkatchenko,  D. G. Truhlar,  T. Van Voorhis,  Fan Wang,  
 T. A. Wesolowski,  K. B. Whaley,  H. L. Woodcock III,  P. M. Zimmerman,  
 S. Faraji,  P. M. W. Gill,  M. Head-Gordon,  J. M. Herbert,  A. I. Krylov

 Contributors to earlier versions of Q-Chem not listed above: 
 R. D. Adamson,  B. Austin,  R. Baer,  J. Baker,  G. J. O. Beran,  
 K. Brandhorst,  S. T. Brown,  E. F. C. Byrd,  Arup K. Chakraborty,  
 G. K. L. Chan,  Chun-Min Chang,  Yunqing Chen,  C.-L. Cheng,  
 Siu Hung Chien,  D. M. Chipman,  D. L. Crittenden,  H. Dachsel,  
 R. J. Doerksen,  A. D. Dutoi,  R. G. Edgar,  J. Fosso-Tande,  
 L. Fusti-Molnar,  D. Ghosh,  A. Ghysels,  A. Golubeva-Zadorozhnaya,  
 J. Gonthier,  M. S. Gordon,  S. R. Gwaltney,  G. Hawkins,  J. E. Herr,  
 A. Heyden,  S. Hirata,  E. G. Hohenstein,  G. Kedziora,  F. J. Keil,  
 C. Kelley,  Jihan Kim,  R. A. King,  R. Z. Khaliullin,  P. P. Korambath,  
 W. Kurlancheek,  A. Laurent,  A. M. Lee,  M. S. Lee,  S. V. Levchenko,  
 Ching Yeh Lin,  D. Liotard,  E. Livshits,  R. C. Lochan,  I. Lotan,  
 L. A. Martinez-Martinez,  P. E. Maslen,  N. Nair,  D. P. O'Neill,  
 D. Neuhauser,  E. Neuscamman,  C. M. Oana,  R. Olivares-Amaya,  R. Olson,  
 T. M. Perrine,  B. Peters,  P. A. Pieniazek,  A. Prociuk,  Y. M. Rhee,  
 J. Ritchie,  M. A. Rohrdanz,  E. Rosta,  N. J. Russ,  H. F. Schaefer III,  
 M. W. Schmidt,  N. E. Schultz,  S. Sharma,  N. Shenvi,  C. D. Sherrill,  
 A. C. Simmonett,  A. Sodt,  T. Stein,  D. Stuck,  K. S. Thanthiriwatte,  
 V. Vanovschi,  L. Vogt,  Tao Wang,  A. Warshel,  M. A. Watson,  
 C. F. Williams,  Q. Wu,  X. Xu,  Jun Yang,  W. Zhang,  Yan Zhao

   Please cite Q-Chem as follows:
  "Software for the frontiers of quantum chemistry:
   An overview of developments in the Q-Chem 5 package"
   J. Chem. Phys. 155, 084801 (2021)
   https://doi.org/10.1063/5.0055522 (open access)

 Q-Chem 6.0.1 for Intel X86 EM64T Linux

 Parts of Q-Chem use Armadillo 9.900.5 (Nocturnal Misbehaviour).
 http://arma.sourceforge.net/

 Q-Chem begins on Wed Apr 24 18:10:05 2024  

 Host: atlas-297
0

     Scratch files written to ./qchem23386//
 Processing $rem in /scratch/abel/SOFTWARE/qchem/config/preferences:
 Processing $rem in /dipc/acebg/.qchemrc:

 Checking the input file for inconsistencies... 	...done.

--------------------------------------------------------------
User input:
--------------------------------------------------------------
$comment
 RAS-SF CALCULATION
$end

$molecule
 READ naphthalene.molecule
$end

$rem
!**CALCULATION TYPE***     
JOBTYPE            sp    
EXCHANGE           HF
CORRELATION        RASCI    !RASCI=Casanova; RASCI2=Zimmerman
BASIS              def2-TZVP
BASIS2             STO-3G

!***SCF REFERENCE***
INPUT_BOHR          TRUE
!SKIP_SCFMAN        FALSE
UNRESTRICTED       FALSE
!SCF_GUESS          core
!SCF_GUESS_MIX      FALSE
!SCF_GUESS_ALWAYS   FALSE
MAX_SCF_CYCLES     999
SCF_CONVERGENCE    10
SCF_ALGORITHM      DIIS_GDM !DIIS,DM,DIIS_DM,GDM,DIIS_GDM,GD

!SYMMETRY           TRUE   !use of symmetry for calculating integrals
!SYM_IGNORE         FALSE  !turn off using symmetry
!SYM_TOL            5      !tolerance for determining point group
!USE_ABELIAN_SUBGROUP      !define to use abelian group

!THRESH             14
SCF_FINAL_PRINT     1 !0,1,2,3

!****RAS-SF****
RAS_ROOTS          30       !number of RAS-CI roots to be computed
SET_ITER           100     !number of iterations in RASCI
RAS_ELEC           10       !number of electrons in RAS2
RAS_ELEC_ALPHA     6       !spin-α electrons in RAS2 
RAS_ELEC_BETA      4       !spin-β electrons in RAS2

RAS_ACT            9       !number of orbitals in RAS2 
RAS_ACT_ORB  [28,31,32,33,34,35,36,37,45]  !user-selected RAS2 orbitals
RAS_OCC            29       !number of orbitals in RAS1
N_FROZEN_CORE      FC     !Number of frozen core orbitals
N_FROZEN_VIRTUAL   290      !Number of frozen virtual orbitals

RAS_DO_HOLE        TRUE   !presence of hole excitations in RAS-CI wave function
RAS_DO_PART        TRUE   !presence of particle excitations
!RAS_AMPL_PRINT     10     !threshold (×10 2 ) for the CI amplitudes

!RAS_GUESS_CS       0      !number of closed shell guess conﬁgurations
!RAS_SPIN_MULT      0      !spin multiplicity. Only for Ms = 0 
!RAS_SRDFT          FALSE  !short-range density functional RAS-CI
!RAS_NFRAG          0     !fragments of excitation analysis in RASCI

RAS_PRINT          2      !level of information
RAS_NATORB         TRUE   !computation of the natural orbital occupancies
!RAS_NATORB_STATE  0      !Saves NO of i RAS computed state in .fchk ﬁle
!RAS_FOD            TRUE

!****RAS-SOC****
CALC_SOC           TRUE   !calculate SOC for EOM-CC, RAS-CI, ADC, TDDFT/TDA and TDDFT
!RAS_SOC_2E        TRUE   !two-electron mean-ﬁeld contribution, default=true
RAS_SOC_SYM_DENS   TRUE   !averaging of α and β densities

!****MEMORY****
MEM_TOTAL          12000 !Default 2000 MB
MEM_STATIC         3000  !Default 64 MB

!**Molecular Properties and Analysis **                                                                                          
POP_MULLIKEN       TRUE   !Run Mulliken population analysis
LOWDIN_POPULATION  TRUE   !Run Löwdin population analysis
GUI                2       !Checkpoints generation
STATE_ANALYSIS     TRUE

!**Wave function analysis of RAS-CI states: MOLDEN**
!PLOTS = 0     ! Note: This can be omitted, default is 0
!NTO_PAIRS = 2 ! Note: This can be omitted, default is 2
!GUI 0
!MOLDEN_FORMAT      TRUE
!PRINT_ORBITALS     15

!**Wave function analysis of RAS-CI state: CUBE**
!NTO_PAIRS = 2 ! Note: This can be omitted, default is 2
!PLOTS = 1
!GUI 0

!**SR-DFT**
!RAS_SRDFT           TRUE !Perform short-range density functional RAS-CI
!RAS_SRDFT_EXC       0 !EX functional. 0=HF. 
!RAS_SRDFT_ONLY_COR  TRUE !No use of EXC functional
!RAS_SRDFT_COR       srPBE !short-range correlation functional
!ras_srdft_0         TRUE !true: no iteration (one-shot); false: iteration
!RAS_OMEGA           400 !Coulomb range-separation parameter. def=400
!RAS_SRDFT_DAMP     0.5 !dumping factor. def=0.5
$end

!$plots
!   grid_points 100 100 100
!   grid_range  (-10,10) (-10,10) (-10,10)
!$end

--------------------------------------------------------------
 ----------------------------------------------------------------
             Standard Nuclear Orientation (Bohr)
    I     Atom           X                Y                Z
 ----------------------------------------------------------------
    1      C       0.0000000000    -1.3623625091    -0.0000000000
    2      C      -0.0000000000     1.3623625091     0.0000000000
    3      C      -2.3376206850    -2.6436978817    -0.0000000000
    4      C      -4.6989437780    -1.2863193617     0.0000000000
    5      C      -4.6989437780     1.2863193617     0.0000000000
    6      C      -2.3376206850     2.6436978817     0.0000000000
    7      C       2.3376206850     2.6436978817     0.0000000000
    8      C       2.3376206850    -2.6436978817    -0.0000000000
    9      C       4.6989437780    -1.2863193617    -0.0000000000
   10      C       4.6989437780     1.2863193617    -0.0000000000
   11      H       2.3527347410    -4.6914688881    -0.0000000000
   12      H       6.4552948094    -2.3370951729    -0.0000000000
   13      H       6.4552948094     2.3370951729    -0.0000000000
   14      H       2.3527347410     4.6914688881     0.0000000000
   15      H      -2.3527347410    -4.6914688881    -0.0000000000
   16      H      -6.4552948094    -2.3370951729     0.0000000000
   17      H      -6.4552948094     2.3370951729     0.0000000000
   18      H      -2.3527347410     4.6914688881     0.0000000000
 ----------------------------------------------------------------
 Molecular Point Group                 D2h   NOp =  8
 Largest Abelian Subgroup              D2h   NOp =  8
 Nuclear Repulsion Energy =         454.42574361 hartrees
 There are       35 alpha and       33 beta electrons
 Requested basis set is def2-TZVP
 There are 142 shells and 358 basis functions

 Total QAlloc Memory Limit  12000 MB
 Mega-Array Size      2933 MB
 MEM_STATIC part      3000 MB

 A cutoff of  1.0D-14 yielded   9314 shell pairs
 There are     60746 function pairs (     79125 Cartesian)
 Smallest overlap matrix eigenvalue = 6.97E-06

 Scale SEOQF with 1.000000e-01/1.000000e-01/1.000000e+00

 Standard Electronic Orientation quadrupole field applied
 Nucleus-field energy     =     0.0000000153 hartrees
 Requested basis set is STO-3G
 There are 28 shells and 58 basis functions
 A cutoff of  1.0D-14 yielded    372 shell pairs
 There are      1737 function pairs
 Smallest overlap matrix eigenvalue = 1.76E-01
 Constructing guess Fock matrix from core Hamiltonian
 Applying Wolfsberg-Helmholtz approximation
 A restricted Hartree-Fock SCF calculation will be
 performed using Geometric Direct Minimization
 SCF converges when RMS gradient is below 1.0E-04
 ---------------------------------------
  Cycle       Energy        RMS Gradient
 ---------------------------------------
    1    -377.1024281241      3.19E-01 Descent step
    2    -377.5468541962      3.46E-01 Descent step
    3    -377.8859971733      3.03E-01 Descent step
    4    -378.1211214613      1.93E-01 Descent step
    5    -378.2601806527      1.11E-01 Dog-leg BFGS step
    6    -378.3143227321      4.20E-02 Normal BFGS step
    7    -378.3171329705      1.19E-02 Normal BFGS step
    8    -378.3179067138      1.17E-02 Normal BFGS step
    9    -378.3182503324      5.59E-03 Normal BFGS step
   10    -378.3183226581      2.78E-03 Normal BFGS step
   11    -378.3183390535      6.44E-04 Normal BFGS step
   12    -378.3183410818      1.25E-04 Normal BFGS step
   13    -378.3183412080      3.36E-05 Convergence criterion met
 ---------------------------------------
 One-Electron    Energy = -1415.2751875132
 Total Coulomb   Energy =   637.1192831548
 Alpha Exchange  Energy =   -27.8774684288
 Beta  Exchange  Energy =   -26.7107120425
 DFT   Exchange  Energy =     0.0000000000
 DFT Correlation Energy =     0.0000000000
 Nuclear Repu.   Energy =   454.4257436217
 Nuclear Attr.   Energy = -1790.7427064877
 Kinetic         Energy =   375.4675189744
 SCF time:  CPU 0.44 s  wall 1.25 s
 SCF   energy in the small basis set = -378.31834121
 Total energy in the small basis set = -378.31834121
 ----------------------------------------------------
  Cycle       Energy    
 ----------------------------------------------------
    1     -49.2566807390     -4.93E+01
 A restricted Hartree-Fock SCF calculation will be
 performed using Geometric Direct Minimization
 SCF converges when RMS gradient is below 1.0E-10
 ---------------------------------------
  Cycle       Energy        RMS Gradient
 ---------------------------------------
    1    -383.2241170042      1.02E-01 Descent step
    2    -383.3409767478      3.88E-02 Normal BFGS step
    3    -383.3706967425      2.67E-02 Normal BFGS step
    4    -383.3736165128      7.99E-03 Normal BFGS step
    5    -383.3737408410      2.97E-03 Normal BFGS step
    6    -383.3737580551      8.66E-04 Normal BFGS step
    7    -383.3737612699      2.35E-04 Normal BFGS step
    8    -383.3737614434      3.33E-05 Normal BFGS step
    9    -383.3737614569      1.01E-05 Normal BFGS step
   10    -383.3737614577      1.42E-06 Normal BFGS step
   11    -383.3737614577      4.93E-07 Normal BFGS step
   12    -383.3737614577      6.04E-08 Normal BFGS step
   13    -383.3737614577      1.26E-08 Normal BFGS step
   14    -383.3737614577      2.54E-09 Normal BFGS step
   15    -383.3737614577      1.15E-09 Normal BFGS step
   GDM::WARNING energy changes are now smaller than effective accuracy.
   GDM::        calculation will continue, but THRESH should be increased
   GDM::        or SCF_CONVERGENCE decreased.
   GDM::        effective_thresh =   8.253841915495386E-010
   16    -383.3737614577      4.24E-10 Normal BFGS step
   GDM::WARNING energy changes are now smaller than effective accuracy.
   GDM::        calculation will continue, but THRESH should be increased
   GDM::        or SCF_CONVERGENCE decreased.
   GDM::        effective_thresh =   8.253841915495386E-010
   17    -383.3737614577      1.80E-10 Normal BFGS step
   18    -383.3737614577      1.14E-10 Normal BFGS step
   GDM::WARNING energy changes are now smaller than effective accuracy.
   GDM::        calculation will continue, but THRESH should be increased
   GDM::        or SCF_CONVERGENCE decreased.
   GDM::        effective_thresh =   8.253841915495386E-010
   19    -383.3737614577      5.44E-11 Convergence criterion met
 ---------------------------------------
 One-Electron    Energy = -1418.3145495400
 Total Coulomb   Energy =   635.2281110275
 Alpha Exchange  Energy =   -27.7907471404
 Beta  Exchange  Energy =   -26.9223194265
 DFT   Exchange  Energy =     0.0000000000
 DFT Correlation Energy =     0.0000000000
 Nuclear Repu.   Energy =   454.4257436217
 Nuclear Attr.   Energy = -1801.1807663354
 Kinetic         Energy =   382.8662167954
 SCF time:  CPU 580.21 s  wall 585.70 s
 SCF   energy in the final basis set = -383.37376146
 Total energy in the final basis set = -383.37376146
  
     ##========================================##
     ||                                        ||
     ||              R A S M A N 2             ||
     ||________________________________________||
     ||                                        ||
     ||  Author:                               ||
     ||                                        ||
     ||        David Casanova (2010)           ||
     ||                                        ||
     ##========================================##
  
Setting single-point xc-functionals (if necessary)

  ***************************************************
  *  RAS-CI Dimensions:                             *
  *                                                 *
  *  Active Elec.:  10 ( 6, 4)   Active Orb.:   9   *
  *  Doubly Occ. :  29           Doubly Vir.: 320   *
  *  Frozen Occ. :  10           Frozen Vir.: 290   *
  *                                                 *
  *  Total CI configurations:    985824             * 
  *    Active configurations:     10584             * 
  *      Hole configurations:    287280             * 
  *  Particle configurations:    687960             * 
  *                                                 *
  *   Requested states:       30                    *
  *  Spin multiplicity: Any multiplicity            *
  *                                                 *
  ***************************************************
-----------------------------------------
    Memory requirements of RASCI

 Each CI-vector requires      7.52 MiB 
 Max. subspace vectors           3000      

 Reduced Lists                0.00 MiB 
 Excitation Lists             0.01 MiB 
 Excitation Lists Sign        0.01 MiB 
 CI-space (Max)           22858.05 MiB 
 Integrals                  168.79 MiB 
 Memory required (Max)    22858.07 MiB 
 Memory available          2861.02 MiB 

 Q-Chem warning in module rasman2/ras_mem_check.C, line 162:

 Static memory may be insufficient to store the subspace vectors


    Disk requirements of RASCI

 Fock matrix                  1.96 MiB 
 2-electron integrals         4.47 MiB 
 CI-space                 45127.44 MiB 
 Disk required            45133.86 MiB 
-----------------------------------------
  
RAS1 HF-like energy:           -369.9285882622
 Computing integrals
 Computing J and K matrices
 Computing addressing
 Making amplitude guesses
 
Direct CI diagonalization
 ---------------------------------------------------
 Iter    Rts Conv    Rts Left    Ttl Dev     Max Dev
 ---------------------------------------------------
   1         0          30      0.007782    0.000294
   2         0          30      0.004273    0.000176
   3         0          30      0.002851    0.000141
   4         0          30      0.002215    0.000133
   5         0          30      0.002385    0.000258
   6         0          30      0.002070    0.000257
   7         0          30      0.001624    0.000177
   8         0          30      0.001523    0.000164
   9         0          30      0.001354    0.000162
  10         0          30      0.001105    0.000110
  11         0          30      0.000910    0.000099
  12         3          27      0.000872    0.000128
  13         4          26      0.000773    0.000103
  14         5          25      0.000621    0.000094
  15         7          23      0.000498    0.000084
  16         8          22      0.000398    0.000076
  17        10          20      0.000327    0.000066
  18        10          20      0.000278    0.000052
  19        12          18      0.000276    0.000068
  20        13          17      0.000438    0.000143
  21        15          15      0.000340    0.000104
  22        17          13      0.000239    0.000073
  23        17          13      0.000219    0.000052
  24        19          11      0.000187    0.000064
  25        21           9      0.000151    0.000055
  26        24           6      0.000127    0.000049
  27        24           6      0.000103    0.000038
  28        24           6      0.000082    0.000028
  29        24           6      0.000066    0.000019
  30        24           6      0.000055    0.000017
  31        24           6      0.000050    0.000018
  32        24           6      0.000052    0.000019
  33        25           5      0.000095    0.000056
  34        27           3      0.000098    0.000063
  35        27           3      0.000087    0.000053
  36        27           3      0.000076    0.000044
  37        27           3      0.000065    0.000036
  38        27           3      0.000054    0.000028
  39        27           3      0.000045    0.000022
  40        27           3      0.000039    0.000018
  41        29           1      0.000035    0.000015
  42        29           1      0.000030    0.000012
  43        28           2      0.000025    0.000009
  44        28           2      0.000022    0.000006
  45        29           1      0.000020    0.000005
  46        29           1      0.000019    0.000004
  47        29           1      0.000017    0.000003
  48        29           1      0.000017    0.000003
  49        29           1      0.000016    0.000002
  50        29           1      0.000016    0.000002
  51        29           1      0.000015    0.000001
  52        29           1      0.000015    0.000001
  53        30           0      0.000014    0.000001    Roots Converged
 ---------------------------------------------------
   
**************************************************
 RAS-CI total energy for state   1:   -383.473331860575
  Excitation energy (eV) =  0.000000000000
  State symmetry: B2u   (D2h      )
  <S^2>      :  2.0000
  Dipole Moment:    0.0000 X     0.0000 Y     0.0000 Z
 NATURAL OCCUPATION NUMBERS (higher than 1.0E-05)
            1           2           3           4           5           6
    1   2.0000000   2.0000000   2.0000000   2.0000000   2.0000000   2.0000000
            7           8           9          10          11          12
    1   2.0000000   2.0000000   2.0000000   2.0000000   2.0000000   2.0000000
           13          14          15          16          17          18
    1   2.0000000   2.0000000   2.0000000   2.0000000   2.0000000   2.0000000
           19          20          21          22          23          24
    1   2.0000000   2.0000000   2.0000000   2.0000000   2.0000000   2.0000000
           25          26          27          28          29          30
    1   2.0000000   2.0000000   2.0000000   2.0000000   2.0000000   1.9696020
           31          32          33          34          35          36
    1   1.9515997   1.9216697   1.8910241   1.0644388   0.9400398   0.1117406
           37          38          39          40          41          42
    1   0.0797776   0.0463296   0.0152168   0.0020969   0.0017953   0.0013825
           43          44          45
    1   0.0013417   0.0011518   0.0007931

 Head-Gordon Nu:    2.40
 Head-Gordon Nu_nl: 2.14

  Amplitudes : 
  
 | HOLE  | ALPHA     | BETA      | PART  |    AMPLITUDE 
--------------------------------------------------
 |       | 111111000 | 111100000 |       |     9.0032530959648E-01
 |       | 111110100 | 111010000 |       |     1.0121464890493E-01
 |       | 111110010 | 110110000 |       |    -2.0296805099785E-01
--------------------------------------------------
*** Contributions RASCI wfn    Active:  96.12
                                 Hole:   0.00
                                 Part:   3.88

      Mulliken population analysis 
 ---------------------------------------------------
   Atom    Charge (a.u.)   Spin (a.u.)  
 ---------------------------------------------------
   1  C    0.096880       -0.065676 
   2  C    0.096880       -0.065676 
   3  C   -0.164940        0.428621 
   4  C   -0.139146        0.100980 
   5  C   -0.139146        0.100980 
   6  C   -0.164940        0.428621 
   7  C   -0.164940        0.428621 
   8  C   -0.164940        0.428621 
   9  C   -0.139146        0.100980 
  10  C   -0.139146        0.100980 
  11  H    0.130460        0.002523 
  12  H    0.125186        0.000715 
  13  H    0.125186        0.000715 
  14  H    0.130460        0.002523 
  15  H    0.130460        0.002523 
  16  H    0.125186        0.000715 
  17  H    0.125186        0.000715 
  18  H    0.130460        0.002523 
 ---------------------------------------------------
   Sum:    0.000000        2.000000 
 ---------------------------------------------------
 
  
 NATURAL OCCUPATION NUMBERS (higher than 1.0E-05)
            1           2           3           4           5           6
    1   2.0000000   2.0000000   2.0000000   2.0000000   2.0000000   2.0000000
            7           8           9          10          11          12
    1   2.0000000   2.0000000   2.0000000   2.0000000   2.0000000   2.0000000
           13          14          15          16          17          18
    1   2.0000000   2.0000000   2.0000000   2.0000000   2.0000000   2.0000000
           19          20          21          22          23          24
    1   2.0000000   2.0000000   2.0000000   2.0000000   2.0000000   2.0000000
           25          26          27          28          29          30
    1   2.0000000   2.0000000   2.0000000   2.0000000   2.0000000   1.9696020
           31          32          33          34          35          36
    1   1.9515997   1.9216697   1.8910241   1.0644388   0.9400398   0.1117406
           37          38          39          40          41          42
    1   0.0797776   0.0463296   0.0152168   0.0020969   0.0017953   0.0013825
           43          44          45
    1   0.0013417   0.0011518   0.0007931
  
*** Unpaired Electrons
 Yamaguchi Nd:         3.01
 Head-Gordon Nu:       2.40
 Head-Gordon Nu_nl:    2.14
  
**************************************************
 RAS-CI total energy for state   2:   -383.409462387964
  Excitation energy (eV) =  1.737976775230
  State symmetry: B1g   (D2h      )
  <S^2>      :  2.0000
  Dipole Moment:   -0.0000 X     0.0000 Y    -0.0000 Z
  Trans. Moment:   -0.0144 X    -0.0000 Y    -0.0000 Z
  Strength   :  0.000009
  Natural transition orbitals ( 1 -> 2 ):
   e-/hole pair  1 alpha:  ampl =  0.624865 ( 39.0%)   [9 : 10]
   e-/hole pair  2 alpha:  ampl =  0.156483 (  2.4%)   [8 : 11]
   e-/hole pair  1 beta :  ampl =  0.609795 ( 37.2%)   [9 : 10]
   e-/hole pair  2 beta :  ampl =  0.155461 (  2.4%)   [8 : 11]
   Sum of square amplitudes: 0.84

 NATURAL OCCUPATION NUMBERS (higher than 1.0E-05)
            1           2           3           4           5           6
    1   2.0000000   2.0000000   2.0000000   2.0000000   2.0000000   2.0000000
            7           8           9          10          11          12
    1   2.0000000   2.0000000   2.0000000   2.0000000   2.0000000   2.0000000
           13          14          15          16          17          18
    1   2.0000000   2.0000000   2.0000000   2.0000000   2.0000000   2.0000000
           19          20          21          22          23          24
    1   2.0000000   2.0000000   2.0000000   2.0000000   2.0000000   2.0000000
           25          26          27          28          29          30
    1   2.0000000   2.0000000   2.0000000   2.0000000   2.0000000   1.9584491
           31          32          33          34          35          36
    1   1.9543657   1.9239051   1.4833742   1.4370478   0.5578154   0.5308985
           37          38          39          40          41          42
    1   0.0774196   0.0456784   0.0199880   0.0034991   0.0020292   0.0017549
           43          44          45
    1   0.0015926   0.0013330   0.0008493

 Head-Gordon Nu:    2.49
 Head-Gordon Nu_nl: 2.57

  Amplitudes : 
  
 | HOLE  | ALPHA     | BETA      | PART  |    AMPLITUDE 
--------------------------------------------------
 |       | 111111000 | 110110000 |       |    -6.3183082721464E-01
 |       | 111110010 | 111100000 |       |     6.3616707842428E-01
 |       | 110111010 | 110101000 |       |     1.0594773652173E-01
--------------------------------------------------
*** Contributions RASCI wfn    Active:  94.65
                                 Hole:   0.00
                                 Part:   5.35

      Mulliken population analysis 
 ---------------------------------------------------
   Atom    Charge (a.u.)   Spin (a.u.)  
 ---------------------------------------------------
   1  C    0.093924        0.134909 
   2  C    0.093924        0.134909 
   3  C   -0.158561        0.371986 
   4  C   -0.143662        0.057593 
   5  C   -0.143662        0.057593 
   6  C   -0.158561        0.371986 
   7  C   -0.158561        0.371986 
   8  C   -0.158561        0.371986 
   9  C   -0.143662        0.057593 
  10  C   -0.143662        0.057593 
  11  H    0.130072        0.002556 
  12  H    0.125190        0.000411 
  13  H    0.125190        0.000411 
  14  H    0.130072        0.002556 
  15  H    0.130072        0.002556 
  16  H    0.125190        0.000411 
  17  H    0.125190        0.000411 
  18  H    0.130072        0.002556 
 ---------------------------------------------------
   Sum:   -0.000000        2.000000 
 ---------------------------------------------------
 
  
 NATURAL OCCUPATION NUMBERS (higher than 1.0E-05)
            1           2           3           4           5           6
    1   2.0000000   2.0000000   2.0000000   2.0000000   2.0000000   2.0000000
            7           8           9          10          11          12
    1   2.0000000   2.0000000   2.0000000   2.0000000   2.0000000   2.0000000
           13          14          15          16          17          18
    1   2.0000000   2.0000000   2.0000000   2.0000000   2.0000000   2.0000000
           19          20          21          22          23          24
    1   2.0000000   2.0000000   2.0000000   2.0000000   2.0000000   2.0000000
           25          26          27          28          29          30
    1   2.0000000   2.0000000   2.0000000   2.0000000   2.0000000   1.9584491
           31          32          33          34          35          36
    1   1.9543657   1.9239051   1.4833742   1.4370478   0.5578154   0.5308985
           37          38          39          40          41          42
    1   0.0774196   0.0456784   0.0199880   0.0034991   0.0020292   0.0017549
           43          44          45
    1   0.0015926   0.0013330   0.0008493
  
*** Unpaired Electrons
 Yamaguchi Nd:         3.78
 Head-Gordon Nu:       2.49
 Head-Gordon Nu_nl:    2.57
  
**************************************************
 RAS-CI total energy for state   3:   -383.403036441893
  Excitation energy (eV) =  1.912835664355
  State symmetry: B3u   (D2h      )
  <S^2>      :  2.0000
  Dipole Moment:    0.0000 X     0.0000 Y    -0.0000 Z
  Trans. Moment:   -0.0000 X    -0.0000 Y    -0.0000 Z
  Strength   :  0.000000
  Natural transition orbitals ( 1 -> 3 ):
   e-/hole pair  1 alpha:  ampl =  0.619524 ( 38.4%)   [9 : 10]
   e-/hole pair  2 alpha:  ampl =  0.122420 (  1.5%)   [8 : 11]
   e-/hole pair  1 beta :  ampl =  0.578346 ( 33.4%)   [9 : 10]
   e-/hole pair  2 beta :  ampl =  0.125743 (  1.6%)   [8 : 11]
   Sum of square amplitudes: 0.80

 NATURAL OCCUPATION NUMBERS (higher than 1.0E-05)
            1           2           3           4           5           6
    1   2.0000000   2.0000000   2.0000000   2.0000000   2.0000000   2.0000000
            7           8           9          10          11          12
    1   2.0000000   2.0000000   2.0000000   2.0000000   2.0000000   2.0000000
           13          14          15          16          17          18
    1   2.0000000   2.0000000   2.0000000   2.0000000   2.0000000   2.0000000
           19          20          21          22          23          24
    1   2.0000000   2.0000000   2.0000000   2.0000000   2.0000000   2.0000000
           25          26          27          28          29          30
    1   2.0000000   2.0000000   2.0000000   2.0000000   2.0000000   1.9563028
           31          32          33          34          35          36
    1   1.9170557   1.9079848   1.5183635   1.4129190   0.5502399   0.5481090
           37          38          39          40          41          42
    1   0.0862827   0.0746930   0.0173173   0.0025178   0.0021237   0.0019470
           43          44          45
    1   0.0015611   0.0015251   0.0010576

 Head-Gordon Nu:    2.57
 Head-Gordon Nu_nl: 2.61

  Amplitudes : 
  
 | HOLE  | ALPHA     | BETA      | PART  |    AMPLITUDE 
--------------------------------------------------
 |       | 111111000 | 111010000 |       |     5.8083945896107E-01
 |       | 111111000 | 111000001 |       |    -1.2313311947509E-01
 |       | 111110100 | 111100000 |       |     6.1767100236620E-01
 |       | 111110100 | 101101000 |       |     1.0376312111701E-01
 |       | 111110001 | 111001000 |       |    -1.1576188376945E-01
 |       | 111101100 | 101110000 |       |    -1.3457407174558E-01
 |       | 111101001 | 111010000 |       |     1.0213284179900E-01
 |       | 101111100 | 111100000 |       |    -1.3887923765083E-01
--------------------------------------------------
*** Contributions RASCI wfn    Active:  95.80
                                 Hole:   0.00
                                 Part:   4.20

      Mulliken population analysis 
 ---------------------------------------------------
   Atom    Charge (a.u.)   Spin (a.u.)  
 ---------------------------------------------------
   1  C    0.086978        0.148114 
   2  C    0.086978        0.148114 
   3  C   -0.149356        0.201962 
   4  C   -0.149534        0.221214 
   5  C   -0.149534        0.221214 
   6  C   -0.149356        0.201962 
   7  C   -0.149356        0.201962 
   8  C   -0.149356        0.201962 
   9  C   -0.149534        0.221214 
  10  C   -0.149534        0.221214 
  11  H    0.130744        0.001150 
  12  H    0.124657        0.001617 
  13  H    0.124657        0.001617 
  14  H    0.130744        0.001150 
  15  H    0.130744        0.001150 
  16  H    0.124657        0.001617 
  17  H    0.124657        0.001617 
  18  H    0.130744        0.001150 
 ---------------------------------------------------
   Sum:    0.000000        2.000000 
 ---------------------------------------------------
 
  
 NATURAL OCCUPATION NUMBERS (higher than 1.0E-05)
            1           2           3           4           5           6
    1   2.0000000   2.0000000   2.0000000   2.0000000   2.0000000   2.0000000
            7           8           9          10          11          12
    1   2.0000000   2.0000000   2.0000000   2.0000000   2.0000000   2.0000000
           13          14          15          16          17          18
    1   2.0000000   2.0000000   2.0000000   2.0000000   2.0000000   2.0000000
           19          20          21          22          23          24
    1   2.0000000   2.0000000   2.0000000   2.0000000   2.0000000   2.0000000
           25          26          27          28          29          30
    1   2.0000000   2.0000000   2.0000000   2.0000000   2.0000000   1.9563028
           31          32          33          34          35          36
    1   1.9170557   1.9079848   1.5183635   1.4129190   0.5502399   0.5481090
           37          38          39          40          41          42
    1   0.0862827   0.0746930   0.0173173   0.0025178   0.0021237   0.0019470
           43          44          45
    1   0.0015611   0.0015251   0.0010576
  
*** Unpaired Electrons
 Yamaguchi Nd:         3.94
 Head-Gordon Nu:       2.57
 Head-Gordon Nu_nl:    2.61
  
**************************************************
 RAS-CI total energy for state   4:   -383.364970281067
  Excitation energy (eV) =  2.948668601959
  State symmetry: B2u   (D2h      )
  <S^2>      :  2.0000
  Dipole Moment:    0.0000 X     0.0000 Y     0.0000 Z
  Trans. Moment:   -0.0000 X    -0.0000 Y     0.0000 Z
  Strength   :  0.000000
  Natural transition orbitals ( 1 -> 4 ):
   e-/hole pair  1 alpha:  ampl =  0.129775 (  1.7%)   [9 : 10]
   e-/hole pair  2 alpha:  ampl =  0.103653 (  1.1%)   [8 : 11]
   e-/hole pair  1 beta :  ampl =  0.124000 (  1.5%)   [9 : 10]
   e-/hole pair  2 beta :  ampl =  0.107145 (  1.1%)   [8 : 11]
   Sum of square amplitudes: 0.08

 NATURAL OCCUPATION NUMBERS (higher than 1.0E-05)
            1           2           3           4           5           6
    1   2.0000000   2.0000000   2.0000000   2.0000000   2.0000000   2.0000000
            7           8           9          10          11          12
    1   2.0000000   2.0000000   2.0000000   2.0000000   2.0000000   2.0000000
           13          14          15          16          17          18
    1   2.0000000   2.0000000   2.0000000   2.0000000   2.0000000   2.0000000
           19          20          21          22          23          24
    1   2.0000000   2.0000000   2.0000000   2.0000000   2.0000000   2.0000000
           25          26          27          28          29          30
    1   2.0000000   2.0000000   2.0000000   2.0000000   2.0000000   1.9538396
           31          32          33          34          35          36
    1   1.9218632   1.8906438   1.8257858   1.0806801   0.9244452   0.1919057
           37          38          39          40          41          42
    1   0.0943621   0.0835141   0.0228348   0.0028377   0.0019235   0.0018838
           43          44          45
    1   0.0014433   0.0012516   0.0007859

 Head-Gordon Nu:    2.65
 Head-Gordon Nu_nl: 2.33

  Amplitudes : 
  
 | HOLE  | ALPHA     | BETA      | PART  |    AMPLITUDE 
--------------------------------------------------
 |       | 111111000 | 111100000 |       |    -1.4076101633790E-01
 |       | 111110100 | 111010000 |       |     8.1649710458333E-01
 |       | 111110100 | 101011000 |       |     1.8576737926066E-01
 |       | 111110001 | 101110000 |       |    -1.5573284688387E-01
 |       | 111101100 | 111001000 |       |    -1.3825174660957E-01
 |       | 111100101 | 111010000 |       |     1.7952933235251E-01
 |       | 111100101 | 101011000 |       |     1.0847891099944E-01
 |       | 111011100 | 101110000 |       |     1.0579463288278E-01
--------------------------------------------------
*** Contributions RASCI wfn    Active:  94.63
                                 Hole:   0.00
                                 Part:   5.37

      Mulliken population analysis 
 ---------------------------------------------------
   Atom    Charge (a.u.)   Spin (a.u.)  
 ---------------------------------------------------
   1  C    0.090167        0.400348 
   2  C    0.090167        0.400348 
   3  C   -0.144355       -0.089981 
   4  C   -0.155965        0.387565 
   5  C   -0.155965        0.387565 
   6  C   -0.144355       -0.089981 
   7  C   -0.144355       -0.089981 
   8  C   -0.144355       -0.089981 
   9  C   -0.155965        0.387565 
  10  C   -0.155965        0.387565 
  11  H    0.130855       -0.000493 
  12  H    0.124381        0.002735 
  13  H    0.124381        0.002735 
  14  H    0.130855       -0.000493 
  15  H    0.130855       -0.000493 
  16  H    0.124381        0.002735 
  17  H    0.124381        0.002735 
  18  H    0.130855       -0.000493 
 ---------------------------------------------------
   Sum:    0.000000        2.000000 
 ---------------------------------------------------
 
  
 NATURAL OCCUPATION NUMBERS (higher than 1.0E-05)
            1           2           3           4           5           6
    1   2.0000000   2.0000000   2.0000000   2.0000000   2.0000000   2.0000000
            7           8           9          10          11          12
    1   2.0000000   2.0000000   2.0000000   2.0000000   2.0000000   2.0000000
           13          14          15          16          17          18
    1   2.0000000   2.0000000   2.0000000   2.0000000   2.0000000   2.0000000
           19          20          21          22          23          24
    1   2.0000000   2.0000000   2.0000000   2.0000000   2.0000000   2.0000000
           25          26          27          28          29          30
    1   2.0000000   2.0000000   2.0000000   2.0000000   2.0000000   1.9538396
           31          32          33          34          35          36
    1   1.9218632   1.8906438   1.8257858   1.0806801   0.9244452   0.1919057
           37          38          39          40          41          42
    1   0.0943621   0.0835141   0.0228348   0.0028377   0.0019235   0.0018838
           43          44          45
    1   0.0014433   0.0012516   0.0007859
  
*** Unpaired Electrons
 Yamaguchi Nd:         3.51
 Head-Gordon Nu:       2.65
 Head-Gordon Nu_nl:    2.33
  
**************************************************
 RAS-CI total energy for state   5:   -383.351838710282
  Excitation energy (eV) =  3.305996823332
  State symmetry: B3u   (D2h      )
  <S^2>      :  2.0000
  Dipole Moment:   -0.0000 X     0.0000 Y     0.0000 Z
  Trans. Moment:   -0.0000 X    -0.0000 Y     0.0000 Z
  Strength   :  0.000000
  Natural transition orbitals ( 1 -> 5 ):
   e-/hole pair  1 alpha:  ampl =  0.617743 ( 38.2%)   [9 : 10]
   e-/hole pair  2 alpha:  ampl =  0.082034 (  0.7%)   [8 : 11]
   e-/hole pair  1 beta :  ampl =  0.639160 ( 40.9%)   [9 : 10]
   e-/hole pair  2 beta :  ampl =  0.074821 (  0.6%)   [8 : 11]
   Sum of square amplitudes: 0.81

 NATURAL OCCUPATION NUMBERS (higher than 1.0E-05)
            1           2           3           4           5           6
    1   2.0000000   2.0000000   2.0000000   2.0000000   2.0000000   2.0000000
            7           8           9          10          11          12
    1   2.0000000   2.0000000   2.0000000   2.0000000   2.0000000   2.0000000
           13          14          15          16          17          18
    1   2.0000000   2.0000000   2.0000000   2.0000000   2.0000000   2.0000000
           19          20          21          22          23          24
    1   2.0000000   2.0000000   2.0000000   2.0000000   2.0000000   2.0000000
           25          26          27          28          29          30
    1   2.0000000   2.0000000   2.0000000   2.0000000   2.0000000   1.9777228
           31          32          33          34          35          36
    1   1.9635908   1.9423342   1.4915852   1.4624244   0.5542547   0.4960390
           37          38          39          40          41          42
    1   0.0583441   0.0317777   0.0076323   0.0031913   0.0030083   0.0026791
           43          44          45
    1   0.0026614   0.0016943   0.0010604

 Head-Gordon Nu:    2.32
 Head-Gordon Nu_nl: 2.43

  Amplitudes : 
  
 | HOLE  | ALPHA     | BETA      | PART  |    AMPLITUDE 
--------------------------------------------------
 |       | 111111000 | 111010000 |       |     6.6171190493885E-01
 |       | 111110100 | 111100000 |       |    -6.3779161424052E-01
--------------------------------------------------
*** Contributions RASCI wfn    Active:  96.89
                                 Hole:   0.00
                                 Part:   3.11

      Mulliken population analysis 
 ---------------------------------------------------
   Atom    Charge (a.u.)   Spin (a.u.)  
 ---------------------------------------------------
   1  C    0.106579        0.188048 
   2  C    0.106579        0.188048 
   3  C   -0.159681        0.171450 
   4  C   -0.149148        0.231950 
   5  C   -0.149148        0.231950 
   6  C   -0.159681        0.171450 
   7  C   -0.159681        0.171450 
   8  C   -0.159681        0.171450 
   9  C   -0.149148        0.231950 
  10  C   -0.149148        0.231950 
  11  H    0.130701        0.000967 
  12  H    0.124838        0.001608 
  13  H    0.124838        0.001608 
  14  H    0.130701        0.000967 
  15  H    0.130701        0.000967 
  16  H    0.124838        0.001608 
  17  H    0.124838        0.001608 
  18  H    0.130701        0.000967 
 ---------------------------------------------------
   Sum:    0.000000        2.000000 
 ---------------------------------------------------
 
  
 NATURAL OCCUPATION NUMBERS (higher than 1.0E-05)
            1           2           3           4           5           6
    1   2.0000000   2.0000000   2.0000000   2.0000000   2.0000000   2.0000000
            7           8           9          10          11          12
    1   2.0000000   2.0000000   2.0000000   2.0000000   2.0000000   2.0000000
           13          14          15          16          17          18
    1   2.0000000   2.0000000   2.0000000   2.0000000   2.0000000   2.0000000
           19          20          21          22          23          24
    1   2.0000000   2.0000000   2.0000000   2.0000000   2.0000000   2.0000000
           25          26          27          28          29          30
    1   2.0000000   2.0000000   2.0000000   2.0000000   2.0000000   1.9777228
           31          32          33          34          35          36
    1   1.9635908   1.9423342   1.4915852   1.4624244   0.5542547   0.4960390
           37          38          39          40          41          42
    1   0.0583441   0.0317777   0.0076323   0.0031913   0.0030083   0.0026791
           43          44          45
    1   0.0026614   0.0016943   0.0010604
  
*** Unpaired Electrons
 Yamaguchi Nd:         3.54
 Head-Gordon Nu:       2.32
 Head-Gordon Nu_nl:    2.43
  
**************************************************
 RAS-CI total energy for state   6:   -383.350460828203
  Excitation energy (eV) =  3.343490902336
  State symmetry: Ag    (D2h      )
  <S^2>      :  2.0000
  Dipole Moment:    0.0000 X     0.0000 Y     0.0000 Z
  Trans. Moment:    0.0000 X     0.1741 Y     0.0000 Z
  Strength   :  0.002483
  Natural transition orbitals ( 1 -> 6 ):
   e-/hole pair  1 alpha:  ampl =  0.426472 ( 18.2%)   [9 : 10]
   e-/hole pair  2 alpha:  ampl =  0.159601 (  2.5%)   [8 : 11]
   e-/hole pair  1 beta :  ampl =  0.546747 ( 29.9%)   [9 : 10]
   e-/hole pair  2 beta :  ampl =  0.171745 (  2.9%)   [8 : 11]
   Sum of square amplitudes: 0.56

 NATURAL OCCUPATION NUMBERS (higher than 1.0E-05)
            1           2           3           4           5           6
    1   2.0000000   2.0000000   2.0000000   2.0000000   2.0000000   2.0000000
            7           8           9          10          11          12
    1   2.0000000   2.0000000   2.0000000   2.0000000   2.0000000   2.0000000
           13          14          15          16          17          18
    1   2.0000000   2.0000000   2.0000000   2.0000000   2.0000000   2.0000000
           19          20          21          22          23          24
    1   2.0000000   2.0000000   2.0000000   2.0000000   2.0000000   2.0000000
           25          26          27          28          29          30
    1   2.0000000   2.0000000   2.0000000   2.0000000   2.0000000   1.9594727
           31          32          33          34          35          36
    1   1.7930465   1.7186350   1.6184726   1.5841132   0.5265617   0.2707571
           37          38          39          40          41          42
    1   0.2638637   0.2330938   0.0185680   0.0042661   0.0022646   0.0020688
           43          44          45
    1   0.0018288   0.0017461   0.0012414

 Head-Gordon Nu:    2.65
 Head-Gordon Nu_nl: 2.40

  Amplitudes : 
  
 | HOLE  | ALPHA     | BETA      | PART  |    AMPLITUDE 
--------------------------------------------------
 |       | 111111000 | 101110000 |       |     5.4585718187588E-01
 |       | 111111000 | 101100001 |       |    -1.2410166941298E-01
 |       | 111110100 | 110110000 |       |     3.2405339499856E-01
 |       | 111110010 | 111010000 |       |    -3.4536831713566E-01
 |       | 111110001 | 111100000 |       |    -4.1794169167513E-01
 |       | 111110001 | 101101000 |       |    -1.0800513358151E-01
 |       | 111101100 | 111010000 |       |    -1.1338766811727E-01
 |       | 111101001 | 101110000 |       |     1.2313992386899E-01
 |       | 111011100 | 111100000 |       |    -1.0657827789855E-01
 |       | 101111001 | 111100000 |       |     1.0704338803754E-01
--------------------------------------------------
*** Contributions RASCI wfn    Active:  95.06
                                 Hole:   0.00
                                 Part:   4.94

      Mulliken population analysis 
 ---------------------------------------------------
   Atom    Charge (a.u.)   Spin (a.u.)  
 ---------------------------------------------------
   1  C    0.094571        0.032636 
   2  C    0.094571        0.032636 
   3  C   -0.166808        0.247220 
   4  C   -0.135234        0.233085 
   5  C   -0.135234        0.233085 
   6  C   -0.166808        0.247220 
   7  C   -0.166808        0.247220 
   8  C   -0.166808        0.247220 
   9  C   -0.135234        0.233085 
  10  C   -0.135234        0.233085 
  11  H    0.130328        0.001620 
  12  H    0.124428        0.001756 
  13  H    0.124428        0.001756 
  14  H    0.130328        0.001620 
  15  H    0.130328        0.001620 
  16  H    0.124428        0.001756 
  17  H    0.124428        0.001756 
  18  H    0.130328        0.001620 
 ---------------------------------------------------
   Sum:   -0.000000        2.000000 
 ---------------------------------------------------
 
  
 NATURAL OCCUPATION NUMBERS (higher than 1.0E-05)
            1           2           3           4           5           6
    1   2.0000000   2.0000000   2.0000000   2.0000000   2.0000000   2.0000000
            7           8           9          10          11          12
    1   2.0000000   2.0000000   2.0000000   2.0000000   2.0000000   2.0000000
           13          14          15          16          17          18
    1   2.0000000   2.0000000   2.0000000   2.0000000   2.0000000   2.0000000
           19          20          21          22          23          24
    1   2.0000000   2.0000000   2.0000000   2.0000000   2.0000000   2.0000000
           25          26          27          28          29          30
    1   2.0000000   2.0000000   2.0000000   2.0000000   2.0000000   1.9594727
           31          32          33          34          35          36
    1   1.7930465   1.7186350   1.6184726   1.5841132   0.5265617   0.2707571
           37          38          39          40          41          42
    1   0.2638637   0.2330938   0.0185680   0.0042661   0.0022646   0.0020688
           43          44          45
    1   0.0018288   0.0017461   0.0012414
  
*** Unpaired Electrons
 Yamaguchi Nd:         4.39
 Head-Gordon Nu:       2.65
 Head-Gordon Nu_nl:    2.40
  
**************************************************
 RAS-CI total energy for state   7:   -383.326013412476
  Excitation energy (eV) =  4.008738931033
  State symmetry: Ag    (D2h      )
  <S^2>      :  2.0000
  Dipole Moment:   -0.0000 X     0.0000 Y     0.0000 Z
  Trans. Moment:    0.0000 X     0.0987 Y    -0.0000 Z
  Strength   :  0.000956
  Natural transition orbitals ( 1 -> 7 ):
   e-/hole pair  1 alpha:  ampl =  0.258133 (  6.7%)   [9 : 10]
   e-/hole pair  2 alpha:  ampl =  0.209008 (  4.4%)   [8 : 11]
   e-/hole pair  1 beta :  ampl =  0.275192 (  7.6%)   [9 : 10]
   e-/hole pair  2 beta :  ampl =  0.244685 (  6.0%)   [8 : 11]
   Sum of square amplitudes: 0.26

 NATURAL OCCUPATION NUMBERS (higher than 1.0E-05)
            1           2           3           4           5           6
    1   2.0000000   2.0000000   2.0000000   2.0000000   2.0000000   2.0000000
            7           8           9          10          11          12
    1   2.0000000   2.0000000   2.0000000   2.0000000   2.0000000   2.0000000
           13          14          15          16          17          18
    1   2.0000000   2.0000000   2.0000000   2.0000000   2.0000000   2.0000000
           19          20          21          22          23          24
    1   2.0000000   2.0000000   2.0000000   2.0000000   2.0000000   2.0000000
           25          26          27          28          29          30
    1   2.0000000   2.0000000   2.0000000   2.0000000   2.0000000   1.9395902
           31          32          33          34          35          36
    1   1.8397228   1.7017170   1.5971437   1.3991164   0.5420336   0.4484648
           37          38          39          40          41          42
    1   0.3753930   0.1150426   0.0275696   0.0047629   0.0025102   0.0024835
           43          44          45
    1   0.0017253   0.0016848   0.0010396

 Head-Gordon Nu:    3.05
 Head-Gordon Nu_nl: 3.01

  Amplitudes : 
  
 | HOLE  | ALPHA     | BETA      | PART  |    AMPLITUDE 
--------------------------------------------------
 |       | 111111000 | 111000100 |       |     2.1924301059702E-01
 |       | 111111000 | 101110000 |       |     2.6277652274963E-01
 |       | 111110100 | 111001000 |       |     2.1278944846812E-01
 |       | 111110100 | 110110000 |       |    -4.2022418816493E-01
 |       | 111110010 | 111010000 |       |     4.6339662247774E-01
 |       | 111110010 | 011110000 |       |     1.8590997047612E-01
 |       | 111110001 | 111100000 |       |    -1.9387310754564E-01
 |       | 111101100 | 111010000 |       |    -2.4081115402661E-01
 |       | 111011100 | 111100000 |       |    -2.3435759189764E-01
 |       | 111110000 | 110110000 |  60   |    -1.0555063059833E-01
--------------------------------------------------
*** Contributions RASCI wfn    Active:  92.47
                                 Hole:   0.00
                                 Part:   7.53

      Mulliken population analysis 
 ---------------------------------------------------
   Atom    Charge (a.u.)   Spin (a.u.)  
 ---------------------------------------------------
   1  C    0.114786        0.264481 
   2  C    0.114786        0.264481 
   3  C   -0.165296        0.188701 
   4  C   -0.147086        0.176416 
   5  C   -0.147086        0.176416 
   6  C   -0.165296        0.188701 
   7  C   -0.165296        0.188701 
   8  C   -0.165296        0.188701 
   9  C   -0.147086        0.176416 
  10  C   -0.147086        0.176416 
  11  H    0.130251        0.001368 
  12  H    0.124739        0.001274 
  13  H    0.124739        0.001274 
  14  H    0.130251        0.001368 
  15  H    0.130251        0.001368 
  16  H    0.124739        0.001274 
  17  H    0.124739        0.001274 
  18  H    0.130251        0.001368 
 ---------------------------------------------------
   Sum:    0.000000        2.000000 
 ---------------------------------------------------
 
  
 NATURAL OCCUPATION NUMBERS (higher than 1.0E-05)
            1           2           3           4           5           6
    1   2.0000000   2.0000000   2.0000000   2.0000000   2.0000000   2.0000000
            7           8           9          10          11          12
    1   2.0000000   2.0000000   2.0000000   2.0000000   2.0000000   2.0000000
           13          14          15          16          17          18
    1   2.0000000   2.0000000   2.0000000   2.0000000   2.0000000   2.0000000
           19          20          21          22          23          24
    1   2.0000000   2.0000000   2.0000000   2.0000000   2.0000000   2.0000000
           25          26          27          28          29          30
    1   2.0000000   2.0000000   2.0000000   2.0000000   2.0000000   1.9395902
           31          32          33          34          35          36
    1   1.8397228   1.7017170   1.5971437   1.3991164   0.5420336   0.4484648
           37          38          39          40          41          42
    1   0.3753930   0.1150426   0.0275696   0.0047629   0.0025102   0.0024835
           43          44          45
    1   0.0017253   0.0016848   0.0010396
  
*** Unpaired Electrons
 Yamaguchi Nd:         4.80
 Head-Gordon Nu:       3.05
 Head-Gordon Nu_nl:    3.01
  
**************************************************
 RAS-CI total energy for state   8:   -383.318447292154
  Excitation energy (eV) =  4.214623540072
  State symmetry: B1g   (D2h      )
  <S^2>      :  2.0000
  Dipole Moment:    0.0000 X     0.0000 Y    -0.0000 Z
  Trans. Moment:    0.2931 X    -0.0000 Y     0.0000 Z
  Strength   :  0.008872
  Natural transition orbitals ( 1 -> 8 ):
   e-/hole pair  1 alpha:  ampl =  0.433356 ( 18.8%)   [9 : 10]
   e-/hole pair  2 alpha:  ampl =  0.219858 (  4.8%)   [8 : 11]
   e-/hole pair  1 beta :  ampl =  0.337162 ( 11.4%)   [9 : 10]
   e-/hole pair  2 beta :  ampl =  0.097097 (  0.9%)   [8 : 11]
   Sum of square amplitudes: 0.38

 NATURAL OCCUPATION NUMBERS (higher than 1.0E-05)
            1           2           3           4           5           6
    1   2.0000000   2.0000000   2.0000000   2.0000000   2.0000000   2.0000000
            7           8           9          10          11          12
    1   2.0000000   2.0000000   2.0000000   2.0000000   2.0000000   2.0000000
           13          14          15          16          17          18
    1   2.0000000   2.0000000   2.0000000   2.0000000   2.0000000   2.0000000
           19          20          21          22          23          24
    1   2.0000000   2.0000000   2.0000000   2.0000000   2.0000000   2.0000000
           25          26          27          28          29          30
    1   2.0000000   2.0000000   2.0000000   2.0000000   2.0000000   1.9606043
           31          32          33          34          35          36
    1   1.8759923   1.6406487   1.5829923   1.2362046   0.6580553   0.6133548
           37          38          39          40          41          42
    1   0.2397774   0.1589372   0.0192835   0.0050030   0.0023435   0.0021254
           43          44          45
    1   0.0018539   0.0017263   0.0010977

 Head-Gordon Nu:    3.41
 Head-Gordon Nu_nl: 3.50

  Amplitudes : 
  
 | HOLE  | ALPHA     | BETA      | PART  |    AMPLITUDE 
--------------------------------------------------
 |       | 111111000 | 111001000 |       |     3.1464114049107E-01
 |       | 111110100 | 101110000 |       |     5.0282892181591E-01
 |       | 111110010 | 111100000 |       |     2.2073945766501E-01
 |       | 111110010 | 110011000 |       |     1.0879195633075E-01
 |       | 111110001 | 111010000 |       |    -3.7859038006562E-01
 |       | 111101100 | 111100000 |       |    -4.2451951660369E-01
 |       | 111101100 | 101101000 |       |    -1.8874522691252E-01
 |       | 111101001 | 111001000 |       |     1.5497452625281E-01
--------------------------------------------------
*** Contributions RASCI wfn    Active:  94.99
                                 Hole:   0.00
                                 Part:   5.01

      Mulliken population analysis 
 ---------------------------------------------------
   Atom    Charge (a.u.)   Spin (a.u.)  
 ---------------------------------------------------
   1  C    0.058556        0.140452 
   2  C    0.058556        0.140452 
   3  C   -0.138920        0.070099 
   4  C   -0.145071        0.356449 
   5  C   -0.145071        0.356449 
   6  C   -0.138920        0.070099 
   7  C   -0.138920        0.070099 
   8  C   -0.138920        0.070099 
   9  C   -0.145071        0.356449 
  10  C   -0.145071        0.356449 
  11  H    0.130523        0.000559 
  12  H    0.124190        0.002666 
  13  H    0.124190        0.002666 
  14  H    0.130523        0.000559 
  15  H    0.130523        0.000559 
  16  H    0.124190        0.002666 
  17  H    0.124190        0.002666 
  18  H    0.130523        0.000559 
 ---------------------------------------------------
   Sum:    0.000000        2.000000 
 ---------------------------------------------------
 
  
 NATURAL OCCUPATION NUMBERS (higher than 1.0E-05)
            1           2           3           4           5           6
    1   2.0000000   2.0000000   2.0000000   2.0000000   2.0000000   2.0000000
            7           8           9          10          11          12
    1   2.0000000   2.0000000   2.0000000   2.0000000   2.0000000   2.0000000
           13          14          15          16          17          18
    1   2.0000000   2.0000000   2.0000000   2.0000000   2.0000000   2.0000000
           19          20          21          22          23          24
    1   2.0000000   2.0000000   2.0000000   2.0000000   2.0000000   2.0000000
           25          26          27          28          29          30
    1   2.0000000   2.0000000   2.0000000   2.0000000   2.0000000   1.9606043
           31          32          33          34          35          36
    1   1.8759923   1.6406487   1.5829923   1.2362046   0.6580553   0.6133548
           37          38          39          40          41          42
    1   0.2397774   0.1589372   0.0192835   0.0050030   0.0023435   0.0021254
           43          44          45
    1   0.0018539   0.0017263   0.0010977
  
*** Unpaired Electrons
 Yamaguchi Nd:         5.02
 Head-Gordon Nu:       3.41
 Head-Gordon Nu_nl:    3.50
  
**************************************************
 RAS-CI total energy for state   9:   -383.312254113255
  Excitation energy (eV) =  4.383148512195
  State symmetry: B3u   (D2h      )
  <S^2>      :  2.0000
  Dipole Moment:    0.0000 X     0.0000 Y    -0.0000 Z
  Trans. Moment:    0.0000 X    -0.0000 Y    -0.0000 Z
  Strength   :  0.000000
  Natural transition orbitals ( 1 -> 9 ):
   e-/hole pair  1 alpha:  ampl =  0.536248 ( 28.8%)   [9 : 10]
   e-/hole pair  2 alpha:  ampl =  0.158781 (  2.5%)   [8 : 11]
   e-/hole pair  1 beta :  ampl =  0.532511 ( 28.4%)   [9 : 10]
   e-/hole pair  2 beta :  ampl =  0.323209 ( 10.4%)   [8 : 11]
   Sum of square amplitudes: 0.73

 NATURAL OCCUPATION NUMBERS (higher than 1.0E-05)
            1           2           3           4           5           6
    1   2.0000000   2.0000000   2.0000000   2.0000000   2.0000000   2.0000000
            7           8           9          10          11          12
    1   2.0000000   2.0000000   2.0000000   2.0000000   2.0000000   2.0000000
           13          14          15          16          17          18
    1   2.0000000   2.0000000   2.0000000   2.0000000   2.0000000   2.0000000
           19          20          21          22          23          24
    1   2.0000000   2.0000000   2.0000000   2.0000000   2.0000000   2.0000000
           25          26          27          28          29          30
    1   2.0000000   2.0000000   2.0000000   2.0000000   2.0000000   1.9201942
           31          32          33          34          35          36
    1   1.9014909   1.8433492   1.4612753   1.2164031   0.8919449   0.5350571
           37          38          39          40          41          42
    1   0.1032544   0.0694971   0.0466005   0.0035582   0.0018496   0.0017968
           43          44          45
    1   0.0015738   0.0013873   0.0007676

 Head-Gordon Nu:    3.31
 Head-Gordon Nu_nl: 3.33

  Amplitudes : 
  
 | HOLE  | ALPHA     | BETA      | PART  |    AMPLITUDE 
--------------------------------------------------
 |       | 111111000 | 110101000 |       |     5.4252261075031E-01
 |       | 111111000 | 011110000 |       |     3.1847301488534E-01
 |       | 111110010 | 110100010 |       |    -1.9535471079983E-01
 |       | 111101010 | 111100000 |       |     5.3801655372631E-01
 |       | 110111010 | 110110000 |       |    -2.1495560914410E-01
 |       | 111110000 | 111100000 |  50   |    -1.1671642188297E-01
 |       | 111110000 | 111100000 |  60   |     1.0710410809510E-01
--------------------------------------------------
*** Contributions RASCI wfn    Active:  91.67
                                 Hole:   0.00
                                 Part:   8.33

      Mulliken population analysis 
 ---------------------------------------------------
   Atom    Charge (a.u.)   Spin (a.u.)  
 ---------------------------------------------------
   1  C    0.092084        0.128506 
   2  C    0.092084        0.128506 
   3  C   -0.166779        0.353134 
   4  C   -0.134033        0.079634 
   5  C   -0.134033        0.079634 
   6  C   -0.166779        0.353134 
   7  C   -0.166779        0.353134 
   8  C   -0.166779        0.353134 
   9  C   -0.134033        0.079634 
  10  C   -0.134033        0.079634 
  11  H    0.129755        0.002425 
  12  H    0.125015        0.000553 
  13  H    0.125015        0.000553 
  14  H    0.129755        0.002425 
  15  H    0.129755        0.002425 
  16  H    0.125015        0.000553 
  17  H    0.125015        0.000553 
  18  H    0.129755        0.002425 
 ---------------------------------------------------
   Sum:    0.000000        2.000000 
 ---------------------------------------------------
 
  
 NATURAL OCCUPATION NUMBERS (higher than 1.0E-05)
            1           2           3           4           5           6
    1   2.0000000   2.0000000   2.0000000   2.0000000   2.0000000   2.0000000
            7           8           9          10          11          12
    1   2.0000000   2.0000000   2.0000000   2.0000000   2.0000000   2.0000000
           13          14          15          16          17          18
    1   2.0000000   2.0000000   2.0000000   2.0000000   2.0000000   2.0000000
           19          20          21          22          23          24
    1   2.0000000   2.0000000   2.0000000   2.0000000   2.0000000   2.0000000
           25          26          27          28          29          30
    1   2.0000000   2.0000000   2.0000000   2.0000000   2.0000000   1.9201942
           31          32          33          34          35          36
    1   1.9014909   1.8433492   1.4612753   1.2164031   0.8919449   0.5350571
           37          38          39          40          41          42
    1   0.1032544   0.0694971   0.0466005   0.0035582   0.0018496   0.0017968
           43          44          45
    1   0.0015738   0.0013873   0.0007676
  
*** Unpaired Electrons
 Yamaguchi Nd:         4.58
 Head-Gordon Nu:       3.31
 Head-Gordon Nu_nl:    3.33
  
**************************************************
 RAS-CI total energy for state  10:   -383.311976187527
  Excitation energy (eV) =  4.390711256027
  State symmetry: B1g   (D2h      )
  <S^2>      :  2.0000
  Dipole Moment:    0.0000 X    -0.0000 Y    -0.0000 Z
  Trans. Moment:    1.3616 X    -0.0000 Y     0.0000 Z
  Strength   :  0.199441
  Natural transition orbitals ( 1 -> 10 ):
   e-/hole pair  1 alpha:  ampl =  0.568712 ( 32.3%)   [9 : 10]
   e-/hole pair  2 alpha:  ampl =  0.127685 (  1.6%)   [8 : 11]
   e-/hole pair  1 beta :  ampl =  0.603020 ( 36.4%)   [9 : 10]
   e-/hole pair  2 beta :  ampl =  0.259314 (  6.7%)   [8 : 11]
   Sum of square amplitudes: 0.79

 NATURAL OCCUPATION NUMBERS (higher than 1.0E-05)
            1           2           3           4           5           6
    1   2.0000000   2.0000000   2.0000000   2.0000000   2.0000000   2.0000000
            7           8           9          10          11          12
    1   2.0000000   2.0000000   2.0000000   2.0000000   2.0000000   2.0000000
           13          14          15          16          17          18
    1   2.0000000   2.0000000   2.0000000   2.0000000   2.0000000   2.0000000
           19          20          21          22          23          24
    1   2.0000000   2.0000000   2.0000000   2.0000000   2.0000000   2.0000000
           25          26          27          28          29          30
    1   2.0000000   2.0000000   2.0000000   2.0000000   2.0000000   1.9670547
           31          32          33          34          35          36
    1   1.9398760   1.8190703   1.5117460   1.4469682   0.6869460   0.4437618
           37          38          39          40          41          42
    1   0.0893310   0.0611950   0.0114684   0.0080482   0.0041005   0.0037964
           43          44          45
    1   0.0027227   0.0024628   0.0014520

 Head-Gordon Nu:    2.63
 Head-Gordon Nu_nl: 2.65

  Amplitudes : 
  
 | HOLE  | ALPHA     | BETA      | PART  |    AMPLITUDE 
--------------------------------------------------
 |       | 111111000 | 111001000 |       |    -2.8150135004563E-01
 |       | 111111000 | 110110000 |       |     6.1080910884141E-01
 |       | 111111000 | 110100001 |       |    -1.2001049432824E-01
 |       | 111110010 | 111100000 |       |     5.7538494874106E-01
 |       | 111110001 | 111010000 |       |     1.3349764088709E-01
 |       | 101111010 | 111100000 |       |    -1.1020521687827E-01
--------------------------------------------------
*** Contributions RASCI wfn    Active:  96.15
                                 Hole:   0.00
                                 Part:   3.85

      Mulliken population analysis 
 ---------------------------------------------------
   Atom    Charge (a.u.)   Spin (a.u.)  
 ---------------------------------------------------
   1  C    0.142851        0.074494 
   2  C    0.142851        0.074494 
   3  C   -0.194044        0.378055 
   4  C   -0.132423        0.081620 
   5  C   -0.132423        0.081620 
   6  C   -0.194044        0.378055 
   7  C   -0.194044        0.378055 
   8  C   -0.194044        0.378055 
   9  C   -0.132423        0.081620 
  10  C   -0.132423        0.081620 
  11  H    0.129907        0.002525 
  12  H    0.125135        0.000553 
  13  H    0.125135        0.000553 
  14  H    0.129907        0.002525 
  15  H    0.129907        0.002525 
  16  H    0.125135        0.000553 
  17  H    0.125135        0.000553 
  18  H    0.129907        0.002525 
 ---------------------------------------------------
   Sum:    0.000000        2.000000 
 ---------------------------------------------------
 
  
 NATURAL OCCUPATION NUMBERS (higher than 1.0E-05)
            1           2           3           4           5           6
    1   2.0000000   2.0000000   2.0000000   2.0000000   2.0000000   2.0000000
            7           8           9          10          11          12
    1   2.0000000   2.0000000   2.0000000   2.0000000   2.0000000   2.0000000
           13          14          15          16          17          18
    1   2.0000000   2.0000000   2.0000000   2.0000000   2.0000000   2.0000000
           19          20          21          22          23          24
    1   2.0000000   2.0000000   2.0000000   2.0000000   2.0000000   2.0000000
           25          26          27          28          29          30
    1   2.0000000   2.0000000   2.0000000   2.0000000   2.0000000   1.9670547
           31          32          33          34          35          36
    1   1.9398760   1.8190703   1.5117460   1.4469682   0.6869460   0.4437618
           37          38          39          40          41          42
    1   0.0893310   0.0611950   0.0114684   0.0080482   0.0041005   0.0037964
           43          44          45
    1   0.0027227   0.0024628   0.0014520
  
*** Unpaired Electrons
 Yamaguchi Nd:         4.00
 Head-Gordon Nu:       2.63
 Head-Gordon Nu_nl:    2.65
  
**************************************************
 RAS-CI total energy for state  11:   -383.303993528351
  Excitation energy (eV) =  4.607930463972
  State symmetry: B2u   (D2h      )
  <S^2>      :  2.0000
  Dipole Moment:   -0.0000 X     0.0000 Y     0.0000 Z
  Trans. Moment:    0.0000 X    -0.0000 Y     0.0000 Z
  Strength   :  0.000000
  Natural transition orbitals ( 1 -> 11 ):
   e-/hole pair  1 alpha:  ampl =  0.324872 ( 10.6%)   [9 : 10]
   e-/hole pair  2 alpha:  ampl =  0.134275 (  1.8%)   [8 : 11]
   e-/hole pair  1 beta :  ampl =  0.301861 (  9.1%)   [9 : 10]
   e-/hole pair  2 beta :  ampl =  0.128896 (  1.7%)   [8 : 11]
   Sum of square amplitudes: 0.24

 NATURAL OCCUPATION NUMBERS (higher than 1.0E-05)
            1           2           3           4           5           6
    1   2.0000000   2.0000000   2.0000000   2.0000000   2.0000000   2.0000000
            7           8           9          10          11          12
    1   2.0000000   2.0000000   2.0000000   2.0000000   2.0000000   2.0000000
           13          14          15          16          17          18
    1   2.0000000   2.0000000   2.0000000   2.0000000   2.0000000   2.0000000
           19          20          21          22          23          24
    1   2.0000000   2.0000000   2.0000000   2.0000000   2.0000000   2.0000000
           25          26          27          28          29          30
    1   2.0000000   2.0000000   2.0000000   2.0000000   2.0000000   1.9286058
           31          32          33          34          35          36
    1   1.9262224   1.7628345   1.5771763   1.2273019   0.8130182   0.4340313
           37          38          39          40          41          42
    1   0.2208625   0.0637243   0.0326912   0.0049276   0.0022610   0.0018817
           43          44          45
    1   0.0017934   0.0016830   0.0009849

 Head-Gordon Nu:    3.16
 Head-Gordon Nu_nl: 3.13

  Amplitudes : 
  
 | HOLE  | ALPHA     | BETA      | PART  |    AMPLITUDE 
--------------------------------------------------
 |       | 111111000 | 111100000 |       |    -1.1824924000196E-01
 |       | 111111000 | 110100100 |       |    -2.5512585765729E-01
 |       | 111110100 | 111010000 |       |    -1.0617884888812E-01
 |       | 111110100 | 110101000 |       |    -1.3378851418359E-01
 |       | 111110010 | 111001000 |       |     1.0163265522173E-01
 |       | 111110010 | 110110000 |       |    -6.9740947746979E-01
 |       | 111110010 | 110100001 |       |     1.2378737973243E-01
 |       | 111101100 | 110110000 |       |     1.0424523152494E-01
 |       | 111101010 | 111010000 |       |    -1.5953948396417E-01
 |       | 111101010 | 110101000 |       |     1.3509928554351E-01
 |       | 111101010 | 011110000 |       |    -1.1212509015404E-01
 |       | 111011010 | 111100000 |       |    -2.7218371956696E-01
 |       | 101111010 | 110110000 |       |     1.3301794872946E-01
 |       | 011111010 | 111100000 |       |    -1.0340093165959E-01
--------------------------------------------------
*** Contributions RASCI wfn    Active:  92.87
                                 Hole:   0.00
                                 Part:   7.13

      Mulliken population analysis 
 ---------------------------------------------------
   Atom    Charge (a.u.)   Spin (a.u.)  
 ---------------------------------------------------
   1  C    0.116301        0.115675 
   2  C    0.116301        0.115675 
   3  C   -0.171358        0.436297 
   4  C   -0.141515        0.002643 
   5  C   -0.141515        0.002643 
   6  C   -0.171358        0.436297 
   7  C   -0.171358        0.436297 
   8  C   -0.171358        0.436297 
   9  C   -0.141515        0.002643 
  10  C   -0.141515        0.002643 
  11  H    0.129689        0.003135 
  12  H    0.125033        0.000087 
  13  H    0.125033        0.000087 
  14  H    0.129689        0.003135 
  15  H    0.129689        0.003135 
  16  H    0.125033        0.000087 
  17  H    0.125033        0.000087 
  18  H    0.129689        0.003135 
 ---------------------------------------------------
   Sum:   -0.000000        2.000000 
 ---------------------------------------------------
 
  
 NATURAL OCCUPATION NUMBERS (higher than 1.0E-05)
            1           2           3           4           5           6
    1   2.0000000   2.0000000   2.0000000   2.0000000   2.0000000   2.0000000
            7           8           9          10          11          12
    1   2.0000000   2.0000000   2.0000000   2.0000000   2.0000000   2.0000000
           13          14          15          16          17          18
    1   2.0000000   2.0000000   2.0000000   2.0000000   2.0000000   2.0000000
           19          20          21          22          23          24
    1   2.0000000   2.0000000   2.0000000   2.0000000   2.0000000   2.0000000
           25          26          27          28          29          30
    1   2.0000000   2.0000000   2.0000000   2.0000000   2.0000000   1.9286058
           31          32          33          34          35          36
    1   1.9262224   1.7628345   1.5771763   1.2273019   0.8130182   0.4340313
           37          38          39          40          41          42
    1   0.2208625   0.0637243   0.0326912   0.0049276   0.0022610   0.0018817
           43          44          45
    1   0.0017934   0.0016830   0.0009849
  
*** Unpaired Electrons
 Yamaguchi Nd:         4.57
 Head-Gordon Nu:       3.16
 Head-Gordon Nu_nl:    3.13
  
**************************************************
 RAS-CI total energy for state  12:   -383.281305483455
  Excitation energy (eV) =  5.225303576554
  State symmetry: Ag    (D2h      )
  <S^2>      :  2.0000
  Dipole Moment:   -0.0000 X     0.0000 Y    -0.0000 Z
  Trans. Moment:   -0.0000 X    -0.2476 Y     0.0000 Z
  Strength   :  0.007849
  Natural transition orbitals ( 1 -> 12 ):
   e-/hole pair  1 alpha:  ampl =  0.259046 (  6.7%)   [9 : 10]
   e-/hole pair  2 alpha:  ampl =  0.186707 (  3.5%)   [8 : 11]
   e-/hole pair  1 beta :  ampl =  0.201594 (  4.1%)   [9 : 10]
   e-/hole pair  2 beta :  ampl =  0.164025 (  2.7%)   [8 : 11]
   Sum of square amplitudes: 0.18

 NATURAL OCCUPATION NUMBERS (higher than 1.0E-05)
            1           2           3           4           5           6
    1   2.0000000   2.0000000   2.0000000   2.0000000   2.0000000   2.0000000
            7           8           9          10          11          12
    1   2.0000000   2.0000000   2.0000000   2.0000000   2.0000000   2.0000000
           13          14          15          16          17          18
    1   2.0000000   2.0000000   2.0000000   2.0000000   2.0000000   2.0000000
           19          20          21          22          23          24
    1   2.0000000   2.0000000   2.0000000   2.0000000   2.0000000   2.0000000
           25          26          27          28          29          30
    1   2.0000000   2.0000000   2.0000000   2.0000000   2.0000000   1.9730704
           31          32          33          34          35          36
    1   1.9126634   1.7551749   1.5512878   1.5278517   0.4915883   0.4270385
           37          38          39          40          41          42
    1   0.2191809   0.1145395   0.0087838   0.0064285   0.0032628   0.0027342
           43          44          45
    1   0.0024689   0.0023818   0.0015445

 Head-Gordon Nu:    2.56
 Head-Gordon Nu_nl: 2.42

  Amplitudes : 
  
 | HOLE  | ALPHA     | BETA      | PART  |    AMPLITUDE 
--------------------------------------------------
 |       | 111111000 | 111000100 |       |     1.0560002366588E-01
 |       | 111111000 | 101110000 |       |    -2.0999523915022E-01
 |       | 111110100 | 110110000 |       |     5.8440639239761E-01
 |       | 111110010 | 111010000 |       |     5.5438385990660E-01
 |       | 111110001 | 111100000 |       |    -2.6744574352878E-01
 |       | 111011100 | 111100000 |       |     1.2975324169224E-01
--------------------------------------------------
*** Contributions RASCI wfn    Active:  96.45
                                 Hole:   0.00
                                 Part:   3.55

      Mulliken population analysis 
 ---------------------------------------------------
   Atom    Charge (a.u.)   Spin (a.u.)  
 ---------------------------------------------------
   1  C    0.114322        0.248836 
   2  C    0.114322        0.248836 
   3  C   -0.154058        0.194710 
   4  C   -0.158073        0.178049 
[...]
 -- Singly Occupied (Occupied) --
 -0.326  -0.190
  1 Au    2 B2g                                                                
 -- Virtual --                   
  0.115   0.111   0.215   0.156   0.164   0.166   0.188   0.194
  2 B3g   3 B1u   2 Au   10 Ag    8 B2u   8 B3u  11 Ag    7 B1g                
  0.201   0.226   0.242   0.243   0.276   0.286   0.296   0.301
  9 B2u   9 B3u   8 B1g  12 Ag   10 B3u  10 B2u   3 B3g  13 Ag                 
  0.319   0.319   0.343   0.352   0.362   0.369   0.370   0.400
 11 B2u   4 B1u  11 B3u   3 B2g  14 Ag   15 Ag    9 B1g  10 B1g                
  0.391   0.400   0.415   0.429   0.459   0.460   0.462   0.465
  4 B3g   5 B1u   3 Au   12 B2u  16 Ag   12 B3u  13 B3u   6 B1u                
  0.476   0.472   0.480   0.503   0.509   0.505   0.545   0.547
 17 Ag    4 B2g  14 B3u  13 B2u  14 B2u   5 B3g  15 B2u  11 B1g                
  0.550   0.564   0.572   0.579   0.588   0.604   0.606   0.615
  4 Au   15 B3u  12 B1g  18 Ag   19 Ag   13 B1g  16 B2u   6 B3g                
  0.632   0.633   0.637   0.650   0.651   0.676   0.683   0.710
 17 B2u  16 B3u   5 B2g  20 Ag   14 B1g  18 B2u  17 B3u   7 B1u                
  0.712   0.729   0.753   0.785   0.832   0.843   0.851   0.855
 15 B1g  18 B3u  21 Ag   16 B1g  19 B2u  20 B2u  22 Ag    8 B1u                
  0.870   0.874   0.877   0.896   0.904   0.922   0.923   0.921
 19 B3u  21 B2u  17 B1g   6 B2g  18 B1g  20 B3u  23 Ag    7 B3g                
  0.928   0.946   0.983   0.997   1.019   1.027   1.047   1.052
  5 Au   22 B2u  19 B1g   7 B2g  21 B3u  24 Ag   25 Ag   23 B2u                
  1.067   1.087   1.091   1.110   1.119   1.165   1.175   1.184
  6 Au    9 B1u  20 B1g  26 Ag   22 B3u  23 B3u  10 B1u  24 B2u                
  1.195   1.201   1.267   1.293   1.313   1.332   1.344   1.370
 27 Ag    8 B3g  25 B2u  21 B1g   9 B3g  28 Ag    7 Au    8 B2g                
  1.401   1.399   1.417   1.427   1.438   1.443   1.459   1.469
 22 B1g  24 B3u   9 B2g  25 B3u  29 Ag   26 B2u  23 B1g  10 B3g                
  1.472   1.479   1.497   1.502   1.572   1.584   1.609   1.636
 27 B2u  11 B1u  26 B3u  30 Ag   28 B2u   8 Au   24 B1g  29 B2u                
  1.639   1.647   1.690   1.697   1.748   1.752   1.757   1.763
 31 Ag   25 B1g  12 B1u  27 B3u  10 B2g   9 Au   32 Ag   30 B2u                
  1.766   1.782   1.784   1.823   1.826   1.846   1.865   1.888
 26 B1g  28 B3u  11 B3g  13 B1u  27 B1g  33 Ag   10 Au   31 B2u                
  1.914   1.948   1.946   1.954   1.959   1.958   1.983   1.989
 12 B3g  34 Ag   11 B2g  29 B3u  32 B2u  14 B1u  13 B3g  28 B1g                
  2.008   2.024   2.026   2.111   2.125   2.130   2.160   2.193
 33 B2u  30 B3u  12 B2g  11 Au   35 Ag   15 B1u  14 B3g  12 Au                 
  2.248   2.249   2.254   2.275   2.281   2.288   2.321   2.393
 16 B1u  34 B2u  31 B3u  15 B3g  29 B1g  36 Ag   13 B2g  37 Ag                 
  2.427   2.439   2.446   2.452   2.455   2.457   2.531   2.534
 32 B3u  38 Ag   30 B1g  33 B3u  31 B1g  35 B2u  32 B1g  34 B3u                
  2.554   2.562   2.564   2.598   2.617   2.661   2.724   2.724
 39 Ag   16 B3g  36 B2u  35 B3u  17 B1u  13 Au   40 Ag   37 B2u                
  2.738   2.771   2.777   2.837   2.857   2.863   2.871   2.899
 41 Ag   14 B2g  36 B3u  33 B1g  38 B2u  15 B2g  37 B3u  42 Ag                 
  2.913   2.919   2.930   2.941   2.942   2.964   2.967   3.005
 38 B3u  34 B1g  39 B2u  43 Ag   18 B1u  35 B1g  17 B3g  14 Au                 
  3.012   3.033   3.035   3.052   3.070   3.076   3.097   3.104
 16 B2g  44 Ag   40 B2u  19 B1u  39 B3u  41 B2u  18 B3g  20 B1u                
  3.110   3.113   3.122   3.128   3.135   3.170   3.196   3.198
 45 Ag   36 B1g  17 B2g  40 B3u  42 B2u  37 B1g  43 B2u  21 B1u                
  3.202   3.208   3.217   3.230   3.267   3.286   3.302   3.314
 15 Au   41 B3u  46 Ag   16 Au   38 B1g  18 B2g  44 B2u  39 B1g                
  3.314   3.316   3.324   3.363   3.389   3.415   3.423   3.437
 19 B3g  47 Ag   22 B1u  23 B1u  42 B3u  19 B2g  48 Ag   43 B3u                
  3.466   3.467   3.503   3.504   3.512   3.518   3.523   3.538
 20 B3g  40 B1g  45 B2u  20 B2g  17 Au   21 B3g  49 Ag   46 B2u                
  3.539   3.557   3.559   3.563   3.582   3.625   3.646   3.651
 24 B1u  44 B3u  50 Ag   41 B1g  18 Au   45 B3u  25 B1u  21 B2g                
  3.655   3.661   3.679   3.688   3.694   3.700   3.747   3.752
 47 B2u  51 Ag   42 B1g  52 Ag   22 B3g  46 B3u  43 B1g  19 Au                 
  3.774   3.794   3.799   3.808   3.813   3.845   3.853   3.860
 48 B2u  20 Au   22 B2g  47 B3u  23 B3g  49 B2u  23 B2g  26 B1u                
  3.890   3.905   3.914   3.951   3.972   3.987   4.013   4.054
 24 B3g  50 B2u  44 B1g  48 B3u  45 B1g  53 Ag   51 B2u  21 Au                 
  4.073   4.100   4.149   4.170   4.177   4.184   4.242   4.273
 54 Ag   27 B1u  52 B2u  22 Au   46 B1g  49 B3u  25 B3g  55 Ag                 
  4.278   4.299   4.336   4.364   4.381   4.397   4.420   4.458
 53 B2u  50 B3u  47 B1g  56 Ag   48 B1g  24 B2g  51 B3u  49 B1g                
  4.467   4.485   4.509   4.518   4.538   4.550   4.570   4.600
 26 B3g  28 B1u  57 Ag   54 B2u  55 B2u  50 B1g  58 Ag   29 B1u                
  4.614   4.622   4.642   4.681   4.733   4.751   4.763   4.801
 23 Au   25 B2g  27 B3g  52 B3u  24 Au   53 B3u  59 Ag   51 B1g                
  4.883   4.887   4.995   5.063   5.076   5.094   5.096   5.113
 28 B3g  56 B2u  54 B3u  57 B2u  60 Ag   29 B3g  25 Au   55 B3u                
  5.150   5.155   5.230   5.301   5.399   5.416   5.424   5.454
 61 Ag   58 B2u  52 B1g  56 B3u  59 B2u  62 Ag   53 B1g  60 B2u                
  5.553   5.660   5.689   5.715   5.746   5.966   5.971   6.061
 63 Ag   54 B1g  61 B2u  55 B1g  57 B3u  62 B2u  56 B1g  63 B2u                
  6.301  22.969  23.490  23.590  23.683  23.777  23.874  23.925
 57 B1g  64 Ag   58 B3u  65 Ag   59 B3u  58 B1g  64 B2u  66 Ag                 
 23.978  23.998  24.664
 59 B1g  65 B2u  66 B2u                                                        
 
 Beta MOs, Restricted
 -- Doubly Occupied --           
-11.246 -11.245 -11.236 -11.236 -11.236 -11.236 -11.236 -11.236
  1 Ag    1 B2u   1 B3u   1 B1g   2 Ag    2 B2u   2 B3u   3 Ag                 
-11.235 -11.235  -1.160  -1.092  -1.027  -1.011  -0.943  -0.853
  2 B1g   3 B2u   4 Ag    3 B3u   4 B2u   5 Ag    3 B1g   4 B3u                
 -0.820  -0.802  -0.702  -0.692  -0.668  -0.621  -0.613  -0.578
  5 B2u   6 Ag    4 B1g   5 B3u   7 Ag    6 B2u   8 Ag    6 B3u                
 -0.573  -0.546  -0.534  -0.479  -0.478  -0.493  -0.405  -0.313
  5 B1g   7 B2u   7 B3u   9 Ag    6 B1g   1 B1u   1 B2g   1 B3g                
 -0.326
  2 B1u                                                                        
 -- Singly Occupied (Vacant) --  
 -0.009   0.119
  1 Au    2 B2g                                                                
 -- Virtual --                   
  0.145   0.183   0.264   0.158   0.166   0.168   0.189   0.195
  2 B3g   3 B1u   2 Au   10 Ag    8 B2u   8 B3u  11 Ag    7 B1g                
  0.202   0.229   0.244   0.250   0.285   0.292   0.307   0.304
  9 B2u   9 B3u   8 B1g  12 Ag   10 B3u  10 B2u   3 B3g  13 Ag                 
  0.322   0.339   0.344   0.360   0.366   0.375   0.383   0.403
 11 B2u   4 B1u  11 B3u   3 B2g  14 Ag   15 Ag    9 B1g  10 B1g                
  0.433   0.418   0.431   0.435   0.464   0.468   0.474   0.483
  4 B3g   5 B1u   3 Au   12 B2u  16 Ag   12 B3u  13 B3u   6 B1u                
  0.483   0.497   0.488   0.507   0.517   0.532   0.551   0.558
 17 Ag    4 B2g  14 B3u  13 B2u  14 B2u   5 B3g  15 B2u  11 B1g                
  0.571   0.568   0.576   0.586   0.598   0.609   0.610   0.622
  4 Au   15 B3u  12 B1g  18 Ag   19 Ag   13 B1g  16 B2u   6 B3g                
  0.638   0.641   0.660   0.654   0.654   0.682   0.688   0.725
 17 B2u  16 B3u   5 B2g  20 Ag   14 B1g  18 B2u  17 B3u   7 B1u                
  0.721   0.735   0.756   0.792   0.836   0.848   0.854   0.868
 15 B1g  18 B3u  21 Ag   16 B1g  19 B2u  20 B2u  22 Ag    8 B1u                
  0.874   0.880   0.887   0.922   0.914   0.928   0.927   0.940
 19 B3u  21 B2u  17 B1g   6 B2g  18 B1g  20 B3u  23 Ag    7 B3g                
  0.955   0.951   0.988   1.010   1.023   1.038   1.052   1.055
  5 Au   22 B2u  19 B1g   7 B2g  21 B3u  24 Ag   25 Ag   23 B2u                
  1.091   1.101   1.097   1.113   1.130   1.171   1.195   1.194
  6 Au    9 B1u  20 B1g  26 Ag   22 B3u  23 B3u  10 B1u  24 B2u                
  1.201   1.217   1.275   1.301   1.328   1.337   1.353   1.389
 27 Ag    8 B3g  25 B2u  21 B1g   9 B3g  28 Ag    7 Au    8 B2g                
  1.407   1.411   1.433   1.432   1.446   1.447   1.462   1.477
 22 B1g  24 B3u   9 B2g  25 B3u  29 Ag   26 B2u  23 B1g  10 B3g                
  1.474   1.488   1.500   1.507   1.576   1.604   1.617   1.641
 27 B2u  11 B1u  26 B3u  30 Ag   28 B2u   8 Au   24 B1g  29 B2u                
  1.645   1.652   1.713   1.701   1.762   1.767   1.760   1.766
 31 Ag   25 B1g  12 B1u  27 B3u  10 B2g   9 Au   32 Ag   30 B2u                
  1.771   1.786   1.812   1.832   1.829   1.848   1.882   1.895
 26 B1g  28 B3u  11 B3g  13 B1u  27 B1g  33 Ag   10 Au   31 B2u                
  1.921   1.952   1.972   1.957   1.961   1.972   1.989   1.993
 12 B3g  34 Ag   11 B2g  29 B3u  32 B2u  14 B1u  13 B3g  28 B1g                
  2.013   2.028   2.035   2.128   2.127   2.139   2.171   2.199
 33 B2u  30 B3u  12 B2g  11 Au   35 Ag   15 B1u  14 B3g  12 Au                 
  2.254   2.253   2.262   2.282   2.286   2.294   2.328   2.396
 16 B1u  34 B2u  31 B3u  15 B3g  29 B1g  36 Ag   13 B2g  37 Ag                 
  2.435   2.446   2.456   2.461   2.458   2.465   2.541   2.539
 32 B3u  38 Ag   30 B1g  33 B3u  31 B1g  35 B2u  32 B1g  34 B3u                
  2.559   2.569   2.568   2.602   2.630   2.667   2.729   2.734
 39 Ag   16 B3g  36 B2u  35 B3u  17 B1u  13 Au   40 Ag   37 B2u                
  2.745   2.783   2.781   2.841   2.861   2.876   2.874   2.904
 41 Ag   14 B2g  36 B3u  33 B1g  38 B2u  15 B2g  37 B3u  42 Ag                 
  2.917   2.925   2.935   2.943   2.951   2.968   2.980   3.018
 38 B3u  34 B1g  39 B2u  43 Ag   18 B1u  35 B1g  17 B3g  14 Au                 
  3.018   3.037   3.039   3.061   3.077   3.080   3.110   3.109
 16 B2g  44 Ag   40 B2u  19 B1u  39 B3u  41 B2u  18 B3g  20 B1u                
  3.116   3.118   3.130   3.134   3.142   3.173   3.202   3.205
 45 Ag   36 B1g  17 B2g  40 B3u  42 B2u  37 B1g  43 B2u  21 B1u                
  3.211   3.212   3.230   3.247   3.273   3.297   3.307   3.321
 15 Au   41 B3u  46 Ag   16 Au   38 B1g  18 B2g  44 B2u  39 B1g                
  3.322   3.319   3.337   3.371   3.396   3.422   3.431   3.450
 19 B3g  47 Ag   22 B1u  23 B1u  42 B3u  19 B2g  48 Ag   43 B3u                
  3.476   3.478   3.506   3.515   3.519   3.529   3.527   3.543
 20 B3g  40 B1g  45 B2u  20 B2g  17 Au   21 B3g  49 Ag   46 B2u                
  3.549   3.561   3.561   3.567   3.598   3.628   3.657   3.665
 24 B1u  44 B3u  50 Ag   41 B1g  18 Au   45 B3u  25 B1u  21 B2g                
  3.658   3.665   3.686   3.690   3.707   3.703   3.751   3.761
 47 B2u  51 Ag   42 B1g  52 Ag   22 B3g  46 B3u  43 B1g  19 Au                 
  3.778   3.799   3.810   3.813   3.818   3.851   3.862   3.870
 48 B2u  20 Au   22 B2g  47 B3u  23 B3g  49 B2u  23 B2g  26 B1u                
  3.898   3.908   3.917   3.955   3.974   3.991   4.017   4.063
 24 B3g  50 B2u  44 B1g  48 B3u  45 B1g  53 Ag   51 B2u  21 Au                 
  4.076   4.108   4.153   4.177   4.183   4.189   4.249   4.278
 54 Ag   27 B1u  52 B2u  22 Au   46 B1g  49 B3u  25 B3g  55 Ag                 
  4.283   4.302   4.342   4.367   4.384   4.407   4.426   4.461
 53 B2u  50 B3u  47 B1g  56 Ag   48 B1g  24 B2g  51 B3u  49 B1g                
  4.471   4.494   4.514   4.523   4.541   4.552   4.574   4.608
 26 B3g  28 B1u  57 Ag   54 B2u  55 B2u  50 B1g  58 Ag   29 B1u                
  4.621   4.631   4.648   4.684   4.741   4.753   4.767   4.803
 23 Au   25 B2g  27 B3g  52 B3u  24 Au   53 B3u  59 Ag   51 B1g                
  4.889   4.893   4.999   5.065   5.080   5.100   5.102   5.117
 28 B3g  56 B2u  54 B3u  57 B2u  60 Ag   29 B3g  25 Au   55 B3u                
  5.153   5.158   5.232   5.305   5.402   5.419   5.427   5.456
 61 Ag   58 B2u  52 B1g  56 B3u  59 B2u  62 Ag   53 B1g  60 B2u                
  5.556   5.663   5.691   5.719   5.748   5.969   5.975   6.063
 63 Ag   54 B1g  61 B2u  55 B1g  57 B3u  62 B2u  56 B1g  63 B2u                
  6.303  22.972  23.492  23.593  23.688  23.781  23.875  23.927
 57 B1g  64 Ag   58 B3u  65 Ag   59 B3u  58 B1g  64 B2u  66 Ag                 
 23.981  24.002  24.665
 59 B1g  65 B2u  66 B2u                                                        
 --------------------------------------------------------------
 
          Ground-State Mulliken Net Atomic Charges

     Atom                 Charge (a.u.)
  ----------------------------------------
      1 C                     0.099787
      2 C                     0.099787
      3 C                    -0.169122
      4 C                    -0.136647
      5 C                    -0.136647
      6 C                    -0.169122
      7 C                    -0.169122
      8 C                    -0.169122
      9 C                    -0.136647
     10 C                    -0.136647
     11 H                     0.130526
     12 H                     0.125349
     13 H                     0.125349
     14 H                     0.130526
     15 H                     0.130526
     16 H                     0.125349
     17 H                     0.125349
     18 H                     0.130526
  ----------------------------------------
  Sum of atomic charges =     0.000000

  Do orbital-by-orbital Lowdin population analysis
 
 
 Partial Mulliken analysis unavailable for frozen orbitals
 
 -----------------------------------------------------------------
                    Cartesian Multipole Moments
 -----------------------------------------------------------------
    Charge (ESU x 10^10)
                -0.0000
    Dipole Moment (Debye)
         X       0.0000      Y      -0.0000      Z       0.0000
       Tot       0.0000
    Quadrupole Moments (Debye-Ang)
        XX     -52.6086     XY       0.0000     YY     -51.1495
        XZ       0.0000     YZ       0.0000     ZZ     -65.8565
    Octopole Moments (Debye-Ang^2)
       XXX       0.0000    XXY       0.0000    XYY       0.0000
       YYY      -0.0000    XXZ       0.0000    XYZ       0.0000
       YYZ       0.0000    XZZ       0.0000    YZZ      -0.0000
       ZZZ       0.0000
    Hexadecapole Moments (Debye-Ang^3)
      XXXX   -1148.2205   XXXY       0.0000   XXYY    -262.9239
      XYYY      -0.0000   YYYY    -474.6156   XXXZ      -0.0000
      XXYZ      -0.0000   XYYZ       0.0000   YYYZ       0.0000
      XXZZ    -255.6221   XYZZ       0.0000   YYZZ    -113.2361
      XZZZ       0.0000   YZZZ      -0.0000   ZZZZ     -80.5268
 -----------------------------------------------------------------
 Mayer SCF Bond Order, atomic valence on the diagonal:

            1           2           3           4           5           6
    1   2.0734337   0.2183941   0.3141953   0.0293121  -0.0010059  -0.0347648
    2   0.2183941   3.9844837  -0.0358345   0.0199615   0.0078607   1.4196573
    3   0.3141953  -0.0358345   3.6626136   1.0776706   0.0424306  -0.0210459
    4   0.0293121   0.0199615   1.0776706   3.9197002   1.7543206   0.0424306
    5  -0.0010059   0.0078607   0.0424306   1.7543206   3.9197002   1.0776706
    6  -0.0347648   1.4196573  -0.0210459   0.0424306   1.0776706   3.6626136
    7   0.0029628   1.4196573   0.0511002   0.0256418   0.0157536   0.1159187
    8   0.3207228  -0.0358345   0.1159187   0.0157536   0.0256418   0.0511002
    9   0.0158258   0.0199615   0.0157536   0.0036535   0.0032165   0.0256418
   10  -0.0185594   0.0078607   0.0256418   0.0032165   0.0036535   0.0157536
   11  -0.0232146   0.0069533   0.0039735   0.0001232   0.0000313   0.0008810
   12   0.0020178   0.0004206   0.0003024   0.0002330   0.0000161   0.0003137
   13   0.0029238   0.0048238   0.0003137   0.0000161   0.0002330   0.0003024
   14   0.0001458  -0.0167202   0.0008810   0.0000313   0.0001232   0.0039735
   15  -0.0011512   0.0069533   0.9780074  -0.0139398   0.0049096   0.0002573
   16   0.0082621   0.0004206  -0.0194416   0.9833247  -0.0055076   0.0070273
   17   0.0018173   0.0048238   0.0070273  -0.0055076   0.9833247  -0.0194416
   18   0.0067370  -0.0167202   0.0002573   0.0049096  -0.0139398   0.9780074
            7           8           9          10          11          12
    1   0.0029628   0.3207228   0.0158258  -0.0185594  -0.0232146   0.0020178
    2   1.4196573  -0.0358345   0.0199615   0.0078607   0.0069533   0.0004206
    3   0.0511002   0.1159187   0.0157536   0.0256418   0.0039735   0.0003024
    4   0.0256418   0.0157536   0.0036535   0.0032165   0.0001232   0.0002330
    5   0.0157536   0.0256418   0.0032165   0.0036535   0.0000313   0.0000161
    6   0.1159187   0.0511002   0.0256418   0.0157536   0.0008810   0.0003137
    7   3.6626136  -0.0210459   0.0424306   1.0776706   0.0002573   0.0070273
    8  -0.0210459   3.6626136   1.0776706   0.0424306   0.9780074  -0.0194416
    9   0.0424306   1.0776706   3.9197002   1.7543206  -0.0139398   0.9833247
   10   1.0776706   0.0424306   1.7543206   3.9197002   0.0049096  -0.0055076
   11   0.0002573   0.9780074  -0.0139398   0.0049096   0.9677526  -0.0003562
   12   0.0070273  -0.0194416   0.9833247  -0.0055076  -0.0003562   0.9716985
   13  -0.0194416   0.0070273  -0.0055076   0.9833247   0.0006708  -0.0001790
   14   0.9780074   0.0002573   0.0049096  -0.0139398   0.0000001   0.0006708
   15   0.0008810   0.0039735   0.0001232   0.0000313   0.0026817  -0.0000107
   16   0.0003137   0.0003024   0.0002330   0.0000161  -0.0000107   0.0000393
   17   0.0003024   0.0003137   0.0000161   0.0002330   0.0000131   0.0000088
   18   0.0039735   0.0008810   0.0000313   0.0001232   0.0002771   0.0000131
           13          14          15          16          17          18
    1   0.0029238   0.0001458  -0.0011512   0.0082621   0.0018173   0.0067370
    2   0.0048238  -0.0167202   0.0069533   0.0004206   0.0048238  -0.0167202
    3   0.0003137   0.0008810   0.9780074  -0.0194416   0.0070273   0.0002573
    4   0.0000161   0.0000313  -0.0139398   0.9833247  -0.0055076   0.0049096
    5   0.0002330   0.0001232   0.0049096  -0.0055076   0.9833247  -0.0139398
    6   0.0003024   0.0039735   0.0002573   0.0070273  -0.0194416   0.9780074
    7  -0.0194416   0.9780074   0.0008810   0.0003137   0.0003024   0.0039735
    8   0.0070273   0.0002573   0.0039735   0.0003024   0.0003137   0.0008810
    9  -0.0055076   0.0049096   0.0001232   0.0002330   0.0000161   0.0000313
   10   0.9833247  -0.0139398   0.0000313   0.0000161   0.0002330   0.0001232
   11   0.0006708   0.0000001   0.0026817  -0.0000107   0.0000131   0.0002771
   12  -0.0001790   0.0006708  -0.0000107   0.0000393   0.0000088   0.0000131
   13   0.9716985  -0.0003562   0.0000131   0.0000088   0.0000393  -0.0000107
   14  -0.0003562   0.9677526   0.0002771   0.0000131  -0.0000107   0.0026817
   15   0.0000131   0.0002771   0.9677526  -0.0003562   0.0006708   0.0000001
   16   0.0000088   0.0000131  -0.0003562   0.9716985  -0.0001790   0.0006708
   17   0.0000393  -0.0000107   0.0006708  -0.0001790   0.9716985  -0.0003562
   18  -0.0000107   0.0026817   0.0000001   0.0006708  -0.0003562   0.9677526


 Total job time:  73411.46s(wall), 57269.56s(cpu) 
 Thu Apr 25 14:33:37 2024

        *************************************************************
        *                                                           *
        *  Thank you very much for using Q-Chem.  Have a nice day.  *
        *                                                           *
        *************************************************************


