                  Welcome to Q-Chem
     A Quantum Leap Into The Future Of Chemistry


 Q-Chem 6.0 (devel), Q-Chem, Inc., Pleasanton, CA (2022)

 E. Epifanovsky,  A. T. B. Gilbert,  Xintian Feng,  Joonho Lee,  Yuezhi Mao,  
 N. Mardirossian,  P. Pokhilko,  A. White,  M. Wormit,  M. P. Coons,  
 A. L. Dempwolff,  Zhengting Gan,  D. Hait,  P. R. Horn,  L. D. Jacobson,  
 I. Kaliman,  J. Kussmann,  A. W. Lange,  Ka Un Lao,  D. S. Levine,  Jie Liu,  
 S. C. McKenzie,  A. F. Morrison,  K. Nanda,  F. Plasser,  D. R. Rehn,  
 M. L. Vidal,  Zhi-Qiang You,  Ying Zhu,  B. Alam,  B. Albrecht,  
 A. Aldossary,  E. Alguire,  J. H. Andersen,  V. Athavale,  D. Barton,  
 K. Begam,  A. Behn,  N. Bellonzi,  Y. A. Bernard,  E. J. Berquist,  
 H. Burton,  A. Carreras,  K. Carter-Fenk,  Romit Chakraborty,  
 Chandrima Chakravarty,  Junhan Chen,  A. D. Chien,  K. D. Closser,  
 V. Cofer-Shabica,  L. Cunha,  S. Dasgupta,  Jia Deng,  M. de Wergifosse,  
 M. Diedenhofen,  Hainam Do,  S. Ehlert,  Po-Tung Fang,  S. Fatehi,  
 Qingguo Feng,  T. Friedhoff,  B. Ganoe,  J. Gayvert,  Qinghui Ge,  
 G. Gidofalvi,  M. Goldey,  J. Gomes,  C. Gonzalez-Espinoza,  S. Gulania,  
 A. Gunina,  J. A. Gyamfi,  M. W. D. Hanson-Heine,  P. H. P. Harbach,  
 A. W. Hauser,  M. F. Herbst,  M. Hernandez Vera,  M. Hodecker,  
 Z. C. Holden,  S. Houck,  Xunkun Huang,  Kerwin Hui,  B. C. Huynh,  
 K. Ikeda,  M. Ivanov,  Hyunjun Ji,  Zuxin Jin,  Hanjie Jiang,  B. Kaduk,  
 S. Kaehler,  R. Kang,  K. Khistyaev,  Jaehoon Kim,  Yongbin Kim,  
 P. Klunzinger,  Z. Koczor-Benda,  Joong Hoon Koh,  D. Kosenkov,  
 Saikiran Kotaru,  L. Koulias,  T. Kowalczyk,  C. M. Krauter,  K. Kue,  
 A. Kunitsa,  T. Kus,  A. Landau,  K. V. Lawler,  D. Lefrancois,  S. Lehtola,  
 Rain Li,  Shaozhi Li,  Yi-Pei Li,  Jiashu Liang,  M. Liebenthal,  
 Hung-Hsuan Lin,  You-Sheng Lin,  Fenglai Liu,  Kuan-Yu Liu,  
 M. Loipersberger,  A. Luenser,  C. Malbon,  A. Manjanath,  P. Manohar,  
 E. Mansoor,  S. F. Manzer,  Shan-Ping Mao,  A. V. Marenich,  T. Markovich,  
 S. Mason,  F. Matz,  S. A. Maurer,  P. F. McLaughlin,  M. F. S. J. Menger,  
 J.-M. Mewes,  S. A. Mewes,  P. Morgante,  Mohammad Mostafanejad,  
 J. W. Mullinax,  K. J. Oosterbaan,  G. Paran,  V. Parravicini,  
 Alexander C. Paul,  Suranjan K. Paul,  F. Pavosevic,  Zheng Pei,  S. Prager,  
 E. I. Proynov,  E. Ramos,  B. Rana,  A. E. Rask,  A. Rettig,  R. M. Richard,  
 F. Rob,  E. Rossomme,  T. Scheele,  M. Scheurer,  M. Schneider,  
 P. E. Schneider,  N. Sergueev,  S. M. Sharada,  Hengyuan Shen,  
 W. Skomorowski,  D. W. Small,  C. J. Stein,  Yingli Su,  Yu-Chuan Su,  
 E. J. Sundstrom,  Zhen Tao,  J. Thirman,  Hung-Yi Tsai,  T. Tsuchimochi,  
 N. M. Tubman,  C. Utku,  S. P. Veccham,  O. Vydrov,  J. Wenzel,  
 Jonathan Wong,  J. Witte,  A. Yamada,  Chou-Hsun Yang,  Kun Yao,  
 S. Yeganeh,  S. R. Yost,  A. Zech,  F. Zeller,  Igor Ying Zhang,  
 Xing Zhang,  Yu Zhang,  D. Zuev,  A. Aspuru-Guzik,  A. T. Bell,  
 N. A. Besley,  K. B. Bravaya,  B. R. Brooks,  D. Casanova,  Jeng-Da Chai,  
 Hsing-Ta Chen,  S. Coriani,  C. J. Cramer,  A. E. DePrince, III,  
 R. A. DiStasio Jr.,  A. Dreuw,  B. D. Dunietz,  T. R. Furlani,  
 W. A. Goddard III,  S. Grimme,  S. Hammes-Schiffer,  T. Head-Gordon,  
 W. J. Hehre,  Chao-Ping Hsu,  T.-C. Jagau,  Yousung Jung,  A. Klamt,  
 Jing Kong,  D. S. Lambrecht,  Xiangyuan Li,  WanZhen Liang,  N. J. Mayhall,  
 C. W. McCurdy,  J. B. Neaton,  T. Neudecker,  C. Ochsenfeld,  
 J. A. Parkhill,  R. Peverati,  V. A. Rassolov,  Haisheng Ren,  Yihan Shao,  
 L. V. Slipchenko,  R. P. Steele,  J. E. Subotnik,  A. J. W. Thom,  
 A. Tkatchenko,  D. G. Truhlar,  T. Van Voorhis,  Fan Wang,  
 T. A. Wesolowski,  K. B. Whaley,  H. L. Woodcock III,  P. M. Zimmerman,  
 S. Faraji,  P. M. W. Gill,  M. Head-Gordon,  J. M. Herbert,  A. I. Krylov

 Contributors to earlier versions of Q-Chem not listed above: 
 R. D. Adamson,  B. Austin,  R. Baer,  J. Baker,  G. J. O. Beran,  
 K. Brandhorst,  S. T. Brown,  E. F. C. Byrd,  Arup K. Chakraborty,  
 G. K. L. Chan,  Chun-Min Chang,  Yunqing Chen,  C.-L. Cheng,  
 Siu Hung Chien,  D. M. Chipman,  D. L. Crittenden,  H. Dachsel,  
 R. J. Doerksen,  A. D. Dutoi,  R. G. Edgar,  J. Fosso-Tande,  
 L. Fusti-Molnar,  D. Ghosh,  A. Ghysels,  A. Golubeva-Zadorozhnaya,  
 J. Gonthier,  M. S. Gordon,  S. R. Gwaltney,  G. Hawkins,  J. E. Herr,  
 A. Heyden,  S. Hirata,  E. G. Hohenstein,  G. Kedziora,  F. J. Keil,  
 C. Kelley,  Jihan Kim,  R. A. King,  R. Z. Khaliullin,  P. P. Korambath,  
 W. Kurlancheek,  A. Laurent,  A. M. Lee,  M. S. Lee,  S. V. Levchenko,  
 Ching Yeh Lin,  D. Liotard,  E. Livshits,  R. C. Lochan,  I. Lotan,  
 L. A. Martinez-Martinez,  P. E. Maslen,  N. Nair,  D. P. O'Neill,  
 D. Neuhauser,  E. Neuscamman,  C. M. Oana,  R. Olivares-Amaya,  R. Olson,  
 T. M. Perrine,  B. Peters,  P. A. Pieniazek,  A. Prociuk,  Y. M. Rhee,  
 J. Ritchie,  M. A. Rohrdanz,  E. Rosta,  N. J. Russ,  H. F. Schaefer III,  
 M. W. Schmidt,  N. E. Schultz,  S. Sharma,  N. Shenvi,  C. D. Sherrill,  
 A. C. Simmonett,  A. Sodt,  T. Stein,  D. Stuck,  K. S. Thanthiriwatte,  
 V. Vanovschi,  L. Vogt,  Tao Wang,  A. Warshel,  M. A. Watson,  
 C. F. Williams,  Q. Wu,  X. Xu,  Jun Yang,  W. Zhang,  Yan Zhao

   Please cite Q-Chem as follows:
  "Software for the frontiers of quantum chemistry:
   An overview of developments in the Q-Chem 5 package"
   J. Chem. Phys. 155, 084801 (2021)
   https://doi.org/10.1063/5.0055522 (open access)

 Q-Chem 6.0.1 for Intel X86 EM64T Linux

 Parts of Q-Chem use Armadillo 9.900.5 (Nocturnal Misbehaviour).
 http://arma.sourceforge.net/

 Q-Chem begins on Sat Nov  4 08:46:37 2023  

 Host: atlas-088
0

     Scratch files written to ./qchem6699//
 Processing $rem in /scratch/abel/SOFTWARE/qchem/config/preferences:
 Processing $rem in /dipc/acebg/.qchemrc:

 Checking the input file for inconsistencies... 	...done.

--------------------------------------------------------------
User input:
--------------------------------------------------------------
$comment
 RAS-SF CALCULATION
$end

$molecule
 READ ncl.molecule
$end

$rem
!**CALCULATION TYPE***     
JOBTYPE            sp    
EXCHANGE           HF
CORRELATION        RASCI    !RASCI=Casanova; RASCI2=Zimmerman
BASIS              def2-TZVP

!***SCF REFERENCE***
!SKIP_SCFMAN        FALSE
UNRESTRICTED       FALSE
!SCF_GUESS          core
!SCF_GUESS_MIX      FALSE
!SCF_GUESS_ALWAYS   FALSE
MAX_SCF_CYCLES     500
!SCF_CONVERGENCE    8
SCF_ALGORITHM      DIIS_GDM !DIIS,DM,DIIS_DM,GDM,DIIS_GDM,GD

!SYMMETRY           TRUE !use of symmetry for calculating integrals
!SYM_IGNORE         FALSE !turn off using symmetry
!SYM_TOL            5 !tolerance for determining point group

!THRESH             14
SCF_FINAL_PRINT     1 !0,1,2,3

!****RAS-SF****
RAS_ROOTS          30       !number of RAS-CI roots to be computed
SET_ITER           150     !number of iterations in RASCI
RAS_ELEC           12       !number of electrons in RAS2
RAS_ELEC_ALPHA     7       !spin-α electrons in RAS2 
RAS_ELEC_BETA      5      !spin-β electrons in RAS2

RAS_ACT            9       !number of orbitals in RAS2 
RAS_ACT_ORB   [7,8,9,10,11,12,13,14,15]  !user-selected RAS2 orbitals
RAS_OCC            6       !number of orbitals in RAS1
!N_FROZEN_CORE      0     !Number of frozen core orbitals
!N_FROZEN_VIRTUAL   0      !Number of frozen virtual orbitals

RAS_DO_HOLE        TRUE   !presence of hole excitations in RAS-CI wave function
RAS_DO_PART        TRUE   !presence of particle excitations
!RAS_AMPL_PRINT     10     !threshold (×10 2 ) for the CI amplitudes

!RAS_GUESS_CS       0      !number of closed shell guess conﬁgurations
!RAS_SPIN_MULT      0      !spin multiplicity: 0=any, 2n+1=defined 
!RAS_SRDFT          FALSE  !short-range density functional RAS-CI
!RAS_NFRAG          0     !fragments of excitation analysis in RASCI

RAS_PRINT          2      !level of information
RAS_NATORB         TRUE   !computation of the natural orbital occupancies
!RAS_NATORB_STATE  0      !Saves NO of i RAS computed state in .fchk ﬁle
!RAS_FOD            TRUE

!****RAS-SOC****
CALC_SOC           TRUE   !calculate SOC for EOM-CC, RAS-CI, ADC, TDDFT/TDA and TDDFT
!RAS_SOC_2E        TRUE   !two-electron mean-ﬁeld contribution, default=true
RAS_SOC_SYM_DENS   TRUE   !averaging of α and β densities

!****MEMORY****
MEM_TOTAL          60000 !Default 2000 MB
MEM_STATIC         16000  !Default 64 MB

!**Molecular Properties and Analysis **                                                                                          
!GUI                2
STATE_ANALYSIS     TRUE
MOLDEN_FORMAT      TRUE
PRINT_ORBITALS     20
$end                                           

--------------------------------------------------------------
 ----------------------------------------------------------------
             Standard Nuclear Orientation (Angstroms)
    I     Atom           X                Y                Z
 ----------------------------------------------------------------
    1      N       0.0000000000     0.0000000000    -1.1435333333
    2      Cl      0.0000000000     0.0000000000     0.4708666667
 ----------------------------------------------------------------
 Molecular Point Group                 C2v   NOp =  4
 Largest Abelian Subgroup              C2v   NOp =  4
 Nuclear Repulsion Energy =          39.00649658 hartrees
 There are       13 alpha and       11 beta electrons
 Requested basis set is def2-TZVP
 There are 24 shells and 68 basis functions

 Q-Chem warning in module libmdc/get_mega.C, line 167:

 Allowed MEM_STATIC has been capped at MEM_STATIC=8191.
 Reduce the value of MEM_STATIC to silence this warning.


 Total QAlloc Memory Limit  60000 MB
 Mega-Array Size      8007 MB
 MEM_STATIC part      8191 MB


                       Distance Matrix (Angstroms)
             N (  1)
   Cl(  2)  1.614400
 
 A cutoff of  1.0D-09 yielded    293 shell pairs
 There are      2439 function pairs (      3242 Cartesian)
 Smallest overlap matrix eigenvalue = 4.16E-03

 Scale SEOQF with 1.000000e+00/1.000000e+00/1.000000e+00

 Standard Electronic Orientation quadrupole field applied
 Nucleus-field energy     =    -0.0000000138 hartrees
 Guess from superposition of atomic densities
 Warning:  Energy on first SCF cycle will be non-variational
 SAD guess density has 24.000000 electrons

 -----------------------------------------------------------------------
  General SCF calculation program by
  Eric Jon Sundstrom, Paul Horn, Yuezhi Mao, Dmitri Zuev, Alec White,
  David Stuck, Shaama M.S., Shane Yost, Joonho Lee, David Small,
  Daniel Levine, Susi Lehtola, Hugh Burton, Evgeny Epifanovsky,
  Bang C. Huynh
 -----------------------------------------------------------------------
 Hartree-Fock
 Orthonormalizing orbitals
 A restricted open-shell SCF calculation will be
 performed using DIIS, GDM
 SCF converges when RMS gradient is below 1.0e-05
 ---------------------------------------
  Cycle       Energy         DIIS error
 ---------------------------------------
    1    -512.5898825453      1.02e-01  
    2    -513.3703118374      7.90e-02  
    3    -513.8000440044      2.80e-02  
    4    -513.8745424954      1.04e-02  
    5    -513.8855283878      2.51e-03  Done DIIS. Switching to GDM
 ---------------------------------------
  Cycle       Energy        RMS Gradient
 ---------------------------------------
    1    -513.8855283878      5.98e-02   Normal BFGS step
    2    -513.8895337150      3.12e-02   Normal BFGS step
    3    -513.8905226639      1.32e-02   Normal BFGS step
    4    -513.8906506402      2.70e-03   Normal BFGS step
    5    -513.8906640915      1.52e-03   Normal BFGS step
    6    -513.8906679877      3.80e-04   Normal BFGS step
    7    -513.8906682101      5.56e-05   Normal BFGS step
    8    -513.8906682206      2.70e-05   Normal BFGS step
    9    -513.8906682146      8.43e-06  Convergence criterion met
The disked orbital energies are calculated using alpha and beta Focks
 ---------------------------------------
 Alpha HF Exchange    Energy = -17.64470072547827
 Beta HF Exchange     Energy = -16.48364986247161
 Nuclear Attraction   Energy =   0.00000000000000
 One-Electron (alpha) Energy = -403.42569216388785
 One-Electron (beta)  Energy = -382.79947357155999
 Total Coulomb        Energy = 267.45635153869705
 Final Alpha MO Eigenvalues
            1           2           3           4           5           6
    1-104.8902941 -15.6982367 -10.6172501  -8.0838841  -8.0835053  -8.0835053
            7           8           9          10          11          12
    1  -1.3030748  -0.9972047  -0.6082917  -0.5662114  -0.5662109  -0.5277744
           13          14          15          16          17          18
    1  -0.5277740   0.1582323   0.3506281   0.4352851   0.4423901   0.4423902
           19          20          21          22          23          24
    1   0.4913771   0.4999716   0.4999718   0.5832593   0.5832593   0.6448989
           25          26          27          28          29          30
    1   0.6448989   0.8683978   1.1623513   1.1885515   1.1885515   1.4822095
           31          32          33          34          35          36
    1   1.4822096   1.6389914   2.0542730   2.0542730   2.0698060   2.0698061
           37          38          39          40          41          42
    1   2.1273894   2.1655437   2.2590076   2.2590076   2.3653310   2.3653310
           43          44          45          46          47          48
    1   2.3793108   2.3793108   2.4366355   2.4912722   2.4912723   2.8282118
           49          50          51          52          53          54
    1   2.8282118   2.8413443   3.7221490   4.1609791   4.1609791   4.2532099
           55          56          57          58          59          60
    1   4.2532099   4.5576962   4.5576963   4.7715869   4.7715869   4.9263241
           61          62          63          64          65          66
    1   5.1531545   5.1531545   5.4140012  11.4263809  11.4263809  11.7398422
           67          68
    1  25.8058395  32.5464562
 Final Beta MO Eigenvalues
            1           2           3           4           5           6
    1-104.8884024 -15.6426744 -10.6153203  -8.0828527  -8.0788754  -8.0788754
            7           8           9          10          11          12
    1  -1.2174038  -0.8458326  -0.5365547  -0.5145774  -0.5145774   0.1515540
           13          14          15          16          17          18
    1   0.1515541   0.1902960   0.3657933   0.4534877   0.4669278   0.4669277
           19          20          21          22          23          24
    1   0.5120008   0.5497970   0.5497971   0.5987981   0.5987981   0.6774780
           25          26          27          28          29          30
    1   0.6774780   0.8918072   1.1796337   1.3095157   1.3095157   1.5426868
           31          32          33          34          35          36
    1   1.5426868   1.6755493   2.0610385   2.0610385   2.0786760   2.0786760
           37          38          39          40          41          42
    1   2.1501191   2.2143205   2.3734604   2.3734605   2.3744675   2.3744675
           43          44          45          46          47          48
    1   2.3932790   2.3932790   2.4445028   2.5002426   2.5002427   2.8628936
           49          50          51          52          53          54
    1   2.8628936   2.8762428   3.7452829   4.2568374   4.2568374   4.3212374
           55          56          57          58          59          60
    1   4.3212374   4.6199560   4.6199560   4.9218222   4.9218222   4.9725882
           61          62          63          64          65          66
    1   5.2190449   5.2190450   5.4544974  11.4309206  11.4309206  11.7415513
           67          68
    1  25.8093926  32.5787697
 SCF time:   CPU 5.79s  wall 6.00s 
<S^2> =          2.000000000
 SCF   energy in the final basis set =     -513.8906682146
 Total energy in the final basis set =     -513.8906682146
  
     ##========================================##
     ||                                        ||
     ||              R A S M A N 2             ||
     ||________________________________________||
     ||                                        ||
     ||  Author:                               ||
     ||                                        ||
     ||        David Casanova (2010)           ||
     ||                                        ||
     ##========================================##
  
Setting single-point xc-functionals (if necessary)

  ***************************************************
  *  RAS-CI Dimensions:                             *
  *                                                 *
  *  Active Elec.:  12 ( 7, 5)   Active Orb.:   9   *
  *  Doubly Occ. :   6           Doubly Vir.:  53   *
  *  Frozen Occ. :   0           Frozen Vir.:   0   *
  *                                                 *
  *  Total CI configurations:    830844             * 
  *    Active configurations:      4536             * 
  *      Hole configurations:     24948             * 
  *  Particle configurations:    801360             * 
  *                                                 *
  *   Requested states:       30                    *
  *  Spin multiplicity: Any multiplicity            *
  *                                                 *
  ***************************************************
-----------------------------------------
    Memory requirements of RASCI

 Each CI-vector requires      6.34 MiB 
 Max. subspace vectors           4500      

 Reduced Lists                0.00 MiB 
 Excitation Lists             0.01 MiB 
 Excitation Lists Sign        0.01 MiB 
 CI-space (Max)           28869.46 MiB 
 Integrals                    6.44 MiB 
 Memory required (Max)    28869.48 MiB 
 Memory available          7811.55 MiB 

 Q-Chem warning in module rasman2/ras_mem_check.C, line 162:

 Static memory may be insufficient to store the subspace vectors


    Disk requirements of RASCI

 Fock matrix                  0.07 MiB 
 2-electron integrals         8.18 MiB 
 CI-space                 57049.53 MiB 
 Disk required            57057.78 MiB 
-----------------------------------------
  
RAS1 HF-like energy:           -477.9997606817
 Computing integrals
 Computing J and K matrices
 Computing addressing
 Making amplitude guesses
 
Direct CI diagonalization
 ---------------------------------------------------
 Iter    Rts Conv    Rts Left    Ttl Dev     Max Dev
 ---------------------------------------------------
   1         0          30      0.022432    0.001274
   2         0          30      0.013717    0.000750
   3         0          30      0.014997    0.000962
   4         0          30      0.008662    0.000508
   5         0          30      0.011099    0.000663
   6         0          30      0.008457    0.000535
   7         0          30      0.004719    0.000309
   8         0          30      0.004019    0.000279
   9         0          30      0.003288    0.000237
  10         0          30      0.005865    0.000866
  11         0          30      0.004562    0.000985
  12         0          30      0.003908    0.000800
  13         0          30      0.004107    0.000903
  14         0          30      0.004052    0.000990
  15         0          30      0.004474    0.001074
  16         0          30      0.002972    0.000563
  17         0          30      0.002536    0.000572
  18         0          30      0.002356    0.000459
  19         0          30      0.002983    0.000599
  20         0          30      0.002556    0.000596
  21         0          30      0.002097    0.000476
  22         0          30      0.001834    0.000389
  23         3          27      0.003358    0.000728
  24         3          27      0.003143    0.000642
  25         3          27      0.002046    0.000357
  26         3          27      0.001840    0.000377
  27         3          27      0.001625    0.000396
  28         4          26      0.001319    0.000278
  29         6          24      0.000989    0.000197
  30         9          21      0.000837    0.000166
  31        12          18      0.000714    0.000163
  32        13          17      0.000590    0.000128
  33        17          13      0.000424    0.000067
  34        19          11      0.000369    0.000063
  35        19          11      0.000355    0.000075
  36        19          11      0.000264    0.000054
  37        21           9      0.000216    0.000040
  38        21           9      0.000190    0.000035
  39        21           9      0.000181    0.000034
  40        23           7      0.000141    0.000023
  41        23           7      0.000117    0.000021
  42        23           7      0.000105    0.000019
  43        23           7      0.000088    0.000015
  44        23           7      0.000077    0.000011
  45        23           7      0.000062    0.000009
  46        23           7      0.000057    0.000009
  47        23           7      0.000052    0.000008
  48        23           7      0.000042    0.000006
  49        23           7      0.000037    0.000006
  50        23           7      0.000033    0.000004
  51        23           7      0.000030    0.000004
  52        25           5      0.000027    0.000003
  53        27           3      0.000024    0.000003
  54        27           3      0.000022    0.000002
  55        27           3      0.000021    0.000002
  56        29           1      0.000020    0.000002
  57        29           1      0.000021    0.000002
  58        29           1      0.000021    0.000002
  59        29           1      0.000020    0.000001
  60        30           0      0.000020    0.000001    Roots Converged
 ---------------------------------------------------
   
**************************************************
 RAS-CI total energy for state   1:   -514.032907941442
  Excitation energy (eV) =  0.000000000000
  State symmetry: A2    (C2v      )
  <S^2>      :  2.0000
  Dipole Moment:   -0.0000 X     0.0000 Y    -0.4565 Z
 NATURAL OCCUPATION NUMBERS (higher than 1.0E-05)
            1           2           3           4           5           6
    1   2.0000000   1.9999998   1.9999995   1.9999995   1.9999991   1.9999988
            7           8           9          10          11          12
    1   1.9901273   1.9748076   1.9719706   1.9719706   1.9540248   1.0115693
           13          14          15          16          17          18
    1   1.0115693   0.0535653   0.0086782   0.0086782   0.0082313   0.0044810
           19          20          21          22          23          24
    1   0.0041734   0.0034243   0.0034243   0.0025966   0.0025966   0.0021502
           25          26          27          28          29          30
    1   0.0021502   0.0015329   0.0014792   0.0014792   0.0009778   0.0009778
           31          32          33          34          35          36
    1   0.0005939   0.0004012   0.0002442   0.0002066   0.0002066   0.0001754
           37          38          39          40          41          42
    1   0.0001722   0.0001722   0.0000999   0.0000999   0.0000953   0.0000859
           43          44          45          46          47          48
    1   0.0000859   0.0000706   0.0000706   0.0000658   0.0000658   0.0000522
           49          50          51          52          53          54
    1   0.0000522   0.0000522   0.0000522   0.0000386   0.0000304   0.0000304
           55          56          57          58          59
    1   0.0000290   0.0000259   0.0000259   0.0000192   0.0000192
 Created directory ./qchem6699/plots

  Amplitudes : 
  
 | HOLE  | ALPHA     | BETA      | PART  |    AMPLITUDE 
--------------------------------------------------
 |       | 111111100 | 111110000 |       |     9.4337898385534E-01
 |       | 111111100 | 111100100 |       |     1.1199580824826E-01
 |       | 111111100 | 111011000 |       |     1.1199386769713E-01
--------------------------------------------------
*** Contributions RASCI wfn    Active:  94.01
                                 Hole:   0.00
                                 Part:   5.99

      Mulliken population analysis 
 ---------------------------------------------------
   Atom    Charge (a.u.)   Spin (a.u.)  
 ---------------------------------------------------
   1  N   -0.183268        1.715803 
   2 Cl    0.183268        0.284197 
 ---------------------------------------------------
   Sum:    0.000000        2.000000 
 ---------------------------------------------------
 
  
 NATURAL OCCUPATION NUMBERS (higher than 1.0E-05)
            1           2           3           4           5           6
    1   2.0000000   1.9999998   1.9999995   1.9999995   1.9999991   1.9999988
            7           8           9          10          11          12
    1   1.9901273   1.9748076   1.9719706   1.9719706   1.9540248   1.0115693
           13          14          15          16          17          18
    1   1.0115693   0.0535653   0.0086782   0.0086782   0.0082313   0.0044810
           19          20          21          22          23          24
    1   0.0041734   0.0034243   0.0034243   0.0025966   0.0025966   0.0021502
           25          26          27          28          29          30
    1   0.0021502   0.0015329   0.0014792   0.0014792   0.0009778   0.0009778
           31          32          33          34          35          36
    1   0.0005939   0.0004012   0.0002442   0.0002066   0.0002066   0.0001754
           37          38          39          40          41          42
    1   0.0001722   0.0001722   0.0000999   0.0000999   0.0000953   0.0000859
           43          44          45          46          47          48
    1   0.0000859   0.0000706   0.0000706   0.0000658   0.0000658   0.0000522
           49          50          51          52          53          54
    1   0.0000522   0.0000522   0.0000522   0.0000386   0.0000304   0.0000304
           55          56          57          58          59
    1   0.0000290   0.0000259   0.0000259   0.0000192   0.0000192
  
*** Unpaired Electrons
 Yamaguchi Nd:         2.49
 Head-Gordon Nu:       2.23
 Head-Gordon Nu_nl:    2.03
  
**************************************************
 RAS-CI total energy for state   2:   -513.838084994626
  Excitation energy (eV) =  5.301402109786
  Warning: not all configurations have same symmetry
  State symmetry: *B2    (C2v      )
  <S^2>      :  2.0000
  Dipole Moment:   -0.0000 X     0.0000 Y    -0.0505 Z
  Trans. Moment:    0.1117 X    -0.0244 Y     0.0000 Z
  Strength   :  0.001697
  Natural transition orbitals ( 1 -> 2 ):
   e-/hole pair  1 alpha:  ampl =  0.910227 ( 82.9%)   [9 : 10]
   e-/hole pair  2 alpha:  ampl =  0.046872 (  0.2%)   [8 : 11]
   e-/hole pair  1 beta :  ampl =  0.139603 (  1.9%)   [9 : 10]
   e-/hole pair  2 beta :  ampl =  0.030855 (  0.1%)   [8 : 11]
   Sum of square amplitudes: 0.85

 NATURAL OCCUPATION NUMBERS (higher than 1.0E-05)
            1           2           3           4           5           6
    1   2.0000000   1.9999998   1.9999997   1.9999996   1.9999991   1.9999981
            7           8           9          10          11          12
    1   1.9889487   1.9693715   1.9631214   1.9395021   1.8876495   1.0215447
           13          14          15          16          17          18
    1   0.9841627   0.1787737   0.0123229   0.0085910   0.0075810   0.0055845
           19          20          21          22          23          24
    1   0.0047793   0.0045289   0.0042139   0.0023323   0.0023102   0.0022178
           25          26          27          28          29          30
    1   0.0021332   0.0016695   0.0015595   0.0015051   0.0009437   0.0007630
           31          32          33          34          35          36
    1   0.0006963   0.0004653   0.0003686   0.0002167   0.0002121   0.0002071
           37          38          39          40          41          42
    1   0.0001944   0.0001888   0.0001643   0.0001533   0.0001023   0.0000966
           43          44          45          46          47          48
    1   0.0000755   0.0000747   0.0000704   0.0000691   0.0000526   0.0000513
           49          50          51          52          53          54
    1   0.0000512   0.0000497   0.0000481   0.0000436   0.0000422   0.0000414
           55          56          57          58          59          60
    1   0.0000316   0.0000308   0.0000257   0.0000183   0.0000141   0.0000120

  Amplitudes : 
  
 | HOLE  | ALPHA     | BETA      | PART  |    AMPLITUDE 
--------------------------------------------------
 |       | 111111100 | 110111000 |       |     1.2294559755452E-01
 |       | 111111010 | 111110000 |       |    -1.6608665420384E-01
 |       | 111110110 | 111110000 |       |     7.5971019223525E-01
 |       | 111110110 | 111100100 |       |     1.8569665004502E-01
 |       | 111110110 | 111011000 |       |     2.8160480116318E-01
 |       | 111011110 | 111110000 |       |     3.4302561142200E-01
 |       | 111110100 | 111110000 |  19   |    -1.1647982660846E-01
--------------------------------------------------
*** Contributions RASCI wfn    Active:  90.54
                                 Hole:   0.00
                                 Part:   9.46

      Mulliken population analysis 
 ---------------------------------------------------
   Atom    Charge (a.u.)   Spin (a.u.)  
 ---------------------------------------------------
   1  N   -0.039127        1.212855 
   2 Cl    0.039127        0.787145 
 ---------------------------------------------------
   Sum:    0.000000        2.000000 
 ---------------------------------------------------
 
  
 NATURAL OCCUPATION NUMBERS (higher than 1.0E-05)
            1           2           3           4           5           6
    1   2.0000000   1.9999998   1.9999997   1.9999996   1.9999991   1.9999981
            7           8           9          10          11          12
    1   1.9889487   1.9693715   1.9631214   1.9395021   1.8876495   1.0215447
           13          14          15          16          17          18
    1   0.9841627   0.1787737   0.0123229   0.0085910   0.0075810   0.0055845
           19          20          21          22          23          24
    1   0.0047793   0.0045289   0.0042139   0.0023323   0.0023102   0.0022178
           25          26          27          28          29          30
    1   0.0021332   0.0016695   0.0015595   0.0015051   0.0009437   0.0007630
           31          32          33          34          35          36
    1   0.0006963   0.0004653   0.0003686   0.0002167   0.0002121   0.0002071
           37          38          39          40          41          42
    1   0.0001944   0.0001888   0.0001643   0.0001533   0.0001023   0.0000966
           43          44          45          46          47          48
    1   0.0000755   0.0000747   0.0000704   0.0000691   0.0000526   0.0000513
           49          50          51          52          53          54
    1   0.0000512   0.0000497   0.0000481   0.0000436   0.0000422   0.0000414
           55          56          57          58          59          60
    1   0.0000316   0.0000308   0.0000257   0.0000183   0.0000141   0.0000120
  
*** Unpaired Electrons
 Yamaguchi Nd:         2.94
 Head-Gordon Nu:       2.46
 Head-Gordon Nu_nl:    2.17
  
**************************************************
 RAS-CI total energy for state   3:   -513.838084956224
  Excitation energy (eV) =  5.301403154751
  Warning: not all configurations have same symmetry
  State symmetry: *B1    (C2v      )
  <S^2>      :  2.0000
  Dipole Moment:   -0.0000 X     0.0000 Y    -0.0505 Z
  Trans. Moment:    0.0244 X     0.1117 Y    -0.0000 Z
  Strength   :  0.001697
  Natural transition orbitals ( 1 -> 3 ):
   e-/hole pair  1 alpha:  ampl =  0.910226 ( 82.9%)   [9 : 10]
   e-/hole pair  2 alpha:  ampl =  0.046872 (  0.2%)   [8 : 11]
   e-/hole pair  1 beta :  ampl =  0.139607 (  1.9%)   [9 : 10]
   e-/hole pair  2 beta :  ampl =  0.030854 (  0.1%)   [8 : 11]
   Sum of square amplitudes: 0.85

 NATURAL OCCUPATION NUMBERS (higher than 1.0E-05)
            1           2           3           4           5           6
    1   2.0000000   1.9999998   1.9999997   1.9999996   1.9999991   1.9999981
            7           8           9          10          11          12
    1   1.9889487   1.9693715   1.9631212   1.9395010   1.8876506   1.0215447
           13          14          15          16          17          18
    1   0.9841616   0.1787752   0.0123228   0.0085908   0.0075810   0.0055844
           19          20          21          22          23          24
    1   0.0047793   0.0045289   0.0042139   0.0023323   0.0023102   0.0022178
           25          26          27          28          29          30
    1   0.0021332   0.0016695   0.0015595   0.0015051   0.0009437   0.0007630
           31          32          33          34          35          36
    1   0.0006963   0.0004653   0.0003686   0.0002167   0.0002121   0.0002071
           37          38          39          40          41          42
    1   0.0001944   0.0001888   0.0001643   0.0001533   0.0001023   0.0000966
           43          44          45          46          47          48
    1   0.0000755   0.0000747   0.0000704   0.0000691   0.0000526   0.0000513
           49          50          51          52          53          54
    1   0.0000512   0.0000497   0.0000481   0.0000436   0.0000422   0.0000414
           55          56          57          58          59          60
    1   0.0000316   0.0000308   0.0000257   0.0000183   0.0000141   0.0000120

  Amplitudes : 
  
 | HOLE  | ALPHA     | BETA      | PART  |    AMPLITUDE 
--------------------------------------------------
 |       | 111111100 | 110110100 |       |    -1.2294929224004E-01
 |       | 111111010 | 111110000 |       |     7.5970886917692E-01
 |       | 111111010 | 111100100 |       |     2.8160633569358E-01
 |       | 111111010 | 111011000 |       |     1.8569497698341E-01
 |       | 111110110 | 111110000 |       |     1.6608709511140E-01
 |       | 111101110 | 111110000 |       |    -3.4302694110395E-01
 |       | 111111000 | 111110000 |  19   |    -1.1648119016532E-01
--------------------------------------------------
*** Contributions RASCI wfn    Active:  90.54
                                 Hole:   0.00
                                 Part:   9.46

      Mulliken population analysis 
 ---------------------------------------------------
   Atom    Charge (a.u.)   Spin (a.u.)  
 ---------------------------------------------------
   1  N   -0.039128        1.212855 
   2 Cl    0.039128        0.787145 
 ---------------------------------------------------
   Sum:    0.000000        2.000000 
 ---------------------------------------------------
 
  
 NATURAL OCCUPATION NUMBERS (higher than 1.0E-05)
            1           2           3           4           5           6
    1   2.0000000   1.9999998   1.9999997   1.9999996   1.9999991   1.9999981
            7           8           9          10          11          12
    1   1.9889487   1.9693715   1.9631212   1.9395010   1.8876506   1.0215447
           13          14          15          16          17          18
    1   0.9841616   0.1787752   0.0123228   0.0085908   0.0075810   0.0055844
           19          20          21          22          23          24
    1   0.0047793   0.0045289   0.0042139   0.0023323   0.0023102   0.0022178
           25          26          27          28          29          30
    1   0.0021332   0.0016695   0.0015595   0.0015051   0.0009437   0.0007630
           31          32          33          34          35          36
    1   0.0006963   0.0004653   0.0003686   0.0002167   0.0002121   0.0002071
           37          38          39          40          41          42
    1   0.0001944   0.0001888   0.0001643   0.0001533   0.0001023   0.0000966
           43          44          45          46          47          48
    1   0.0000755   0.0000747   0.0000704   0.0000691   0.0000526   0.0000513
           49          50          51          52          53          54
    1   0.0000512   0.0000497   0.0000481   0.0000436   0.0000422   0.0000414
           55          56          57          58          59          60
    1   0.0000316   0.0000308   0.0000257   0.0000183   0.0000141   0.0000120
  
*** Unpaired Electrons
 Yamaguchi Nd:         2.94
 Head-Gordon Nu:       2.46
 Head-Gordon Nu_nl:    2.17
  
**************************************************
 RAS-CI total energy for state   4:   -513.833021319152
  Excitation energy (eV) =  5.439191729932
  Warning: not all configurations have same symmetry
  State symmetry: *B1    (C2v      )
  <S^2>      :  2.0000
  Dipole Moment:   -0.0000 X    -0.0000 Y    -0.4145 Z
  Trans. Moment:   -0.0574 X    -0.1677 Y     0.0000 Z
  Strength   :  0.004186
  Natural transition orbitals ( 1 -> 4 ):
   e-/hole pair  1 alpha:  ampl =  0.134363 (  1.8%)   [9 : 10]
   e-/hole pair  2 alpha:  ampl =  0.033072 (  0.1%)   [8 : 11]
   e-/hole pair  1 beta :  ampl =  0.948067 ( 89.9%)   [9 : 10]
   e-/hole pair  2 beta :  ampl =  0.052189 (  0.3%)   [8 : 11]
   Sum of square amplitudes: 0.93

 NATURAL OCCUPATION NUMBERS (higher than 1.0E-05)
            1           2           3           4           5           6
    1   2.0000000   1.9999998   1.9999997   1.9999996   1.9999989   1.9999981
            7           8           9          10          11          12
    1   1.9866483   1.9839059   1.9741071   1.9620143   1.9374265   1.0271682
           13          14          15          16          17          18
    1   1.0069011   0.0617825   0.0110636   0.0087003   0.0068061   0.0043695
           19          20          21          22          23          24
    1   0.0034131   0.0032950   0.0029036   0.0026242   0.0021893   0.0021119
           25          26          27          28          29          30
    1   0.0019863   0.0019332   0.0016533   0.0013454   0.0012247   0.0009216
           31          32          33          34          35          36
    1   0.0005322   0.0003549   0.0003132   0.0002626   0.0002448   0.0002293
           37          38          39          40          41          42
    1   0.0002092   0.0001818   0.0001286   0.0000891   0.0000889   0.0000874
           43          44          45          46          47          48
    1   0.0000783   0.0000763   0.0000699   0.0000687   0.0000616   0.0000552
           49          50          51          52          53          54
    1   0.0000479   0.0000438   0.0000424   0.0000365   0.0000359   0.0000333
           55          56          57          58          59          60
    1   0.0000311   0.0000240   0.0000235   0.0000166   0.0000159   0.0000100

  Amplitudes : 
  
 | HOLE  | ALPHA     | BETA      | PART  |    AMPLITUDE 
--------------------------------------------------
 |       | 111111100 | 110111000 |       |    -3.0121057369008E-01
 |       | 111111100 | 110110100 |       |     8.8060652195838E-01
 |       | 111111100 | 101110100 |       |     1.3516691356471E-01
 |       | 111111010 | 111110000 |       |     1.0911602028541E-01
--------------------------------------------------
*** Contributions RASCI wfn    Active:  92.71
                                 Hole:   0.00
                                 Part:   7.29

      Mulliken population analysis 
 ---------------------------------------------------
   Atom    Charge (a.u.)   Spin (a.u.)  
 ---------------------------------------------------
   1  N   -0.271282        1.510460 
   2 Cl    0.271282        0.489540 
 ---------------------------------------------------
   Sum:    0.000000        2.000000 
 ---------------------------------------------------
 
  
 NATURAL OCCUPATION NUMBERS (higher than 1.0E-05)
            1           2           3           4           5           6
    1   2.0000000   1.9999998   1.9999997   1.9999996   1.9999989   1.9999981
            7           8           9          10          11          12
    1   1.9866483   1.9839059   1.9741071   1.9620143   1.9374265   1.0271682
           13          14          15          16          17          18
    1   1.0069011   0.0617825   0.0110636   0.0087003   0.0068061   0.0043695
           19          20          21          22          23          24
    1   0.0034131   0.0032950   0.0029036   0.0026242   0.0021893   0.0021119
           25          26          27          28          29          30
    1   0.0019863   0.0019332   0.0016533   0.0013454   0.0012247   0.0009216
           31          32          33          34          35          36
    1   0.0005322   0.0003549   0.0003132   0.0002626   0.0002448   0.0002293
           37          38          39          40          41          42
    1   0.0002092   0.0001818   0.0001286   0.0000891   0.0000889   0.0000874
           43          44          45          46          47          48
    1   0.0000783   0.0000763   0.0000699   0.0000687   0.0000616   0.0000552
           49          50          51          52          53          54
    1   0.0000479   0.0000438   0.0000424   0.0000365   0.0000359   0.0000333
           55          56          57          58          59          60
    1   0.0000311   0.0000240   0.0000235   0.0000166   0.0000159   0.0000100
  
*** Unpaired Electrons
 Yamaguchi Nd:         2.54
 Head-Gordon Nu:       2.24
 Head-Gordon Nu_nl:    2.04
  
**************************************************
 RAS-CI total energy for state   5:   -513.833021287753
  Excitation energy (eV) =  5.439192584359
  Warning: not all configurations have same symmetry
  State symmetry: *B2    (C2v      )
  <S^2>      :  2.0000
  Dipole Moment:    0.0000 X    -0.0000 Y    -0.4145 Z
  Trans. Moment:    0.1677 X    -0.0574 Y     0.0000 Z
  Strength   :  0.004186
  Natural transition orbitals ( 1 -> 5 ):
   e-/hole pair  1 alpha:  ampl =  0.134359 (  1.8%)   [9 : 10]
   e-/hole pair  2 alpha:  ampl =  0.033072 (  0.1%)   [8 : 11]
   e-/hole pair  1 beta :  ampl =  0.948068 ( 89.9%)   [9 : 10]
   e-/hole pair  2 beta :  ampl =  0.052189 (  0.3%)   [8 : 11]
   Sum of square amplitudes: 0.93

 NATURAL OCCUPATION NUMBERS (higher than 1.0E-05)
            1           2           3           4           5           6
    1   2.0000000   1.9999998   1.9999997   1.9999996   1.9999989   1.9999981
            7           8           9          10          11          12
    1   1.9866485   1.9839047   1.9741089   1.9620150   1.9374276   1.0271665
           13          14          15          16          17          18
    1   1.0069014   0.0617812   0.0110638   0.0087002   0.0068058   0.0043697
           19          20          21          22          23          24
    1   0.0034132   0.0032949   0.0029037   0.0026244   0.0021892   0.0021120
           25          26          27          28          29          30
    1   0.0019863   0.0019330   0.0016534   0.0013455   0.0012249   0.0009216
           31          32          33          34          35          36
    1   0.0005322   0.0003549   0.0003132   0.0002626   0.0002448   0.0002293
           37          38          39          40          41          42
    1   0.0002092   0.0001818   0.0001286   0.0000891   0.0000889   0.0000874
           43          44          45          46          47          48
    1   0.0000783   0.0000763   0.0000699   0.0000687   0.0000616   0.0000552
           49          50          51          52          53          54
    1   0.0000479   0.0000438   0.0000424   0.0000365   0.0000359   0.0000333
           55          56          57          58          59          60
    1   0.0000311   0.0000240   0.0000235   0.0000166   0.0000159   0.0000100

  Amplitudes : 
  
 | HOLE  | ALPHA     | BETA      | PART  |    AMPLITUDE 
--------------------------------------------------
 |       | 111111100 | 110111000 |       |     8.8060673449317E-01
 |       | 111111100 | 110110100 |       |     3.0121069440226E-01
 |       | 111111100 | 101111000 |       |     1.3516714722069E-01
 |       | 111110110 | 111110000 |       |    -1.0911299579952E-01
--------------------------------------------------
*** Contributions RASCI wfn    Active:  92.71
                                 Hole:   0.00
                                 Part:   7.29

      Mulliken population analysis 
 ---------------------------------------------------
   Atom    Charge (a.u.)   Spin (a.u.)  
 ---------------------------------------------------
   1  N   -0.271292        1.510454 
   2 Cl    0.271292        0.489546 
 ---------------------------------------------------
   Sum:    0.000000        2.000000 
 ---------------------------------------------------
 
  
 NATURAL OCCUPATION NUMBERS (higher than 1.0E-05)
            1           2           3           4           5           6
    1   2.0000000   1.9999998   1.9999997   1.9999996   1.9999989   1.9999981
            7           8           9          10          11          12
    1   1.9866485   1.9839047   1.9741089   1.9620150   1.9374276   1.0271665
           13          14          15          16          17          18
    1   1.0069014   0.0617812   0.0110638   0.0087002   0.0068058   0.0043697
           19          20          21          22          23          24
    1   0.0034132   0.0032949   0.0029037   0.0026244   0.0021892   0.0021120
           25          26          27          28          29          30
    1   0.0019863   0.0019330   0.0016534   0.0013455   0.0012249   0.0009216
           31          32          33          34          35          36
    1   0.0005322   0.0003549   0.0003132   0.0002626   0.0002448   0.0002293
           37          38          39          40          41          42
    1   0.0002092   0.0001818   0.0001286   0.0000891   0.0000889   0.0000874
           43          44          45          46          47          48
    1   0.0000783   0.0000763   0.0000699   0.0000687   0.0000616   0.0000552
           49          50          51          52          53          54
    1   0.0000479   0.0000438   0.0000424   0.0000365   0.0000359   0.0000333
           55          56          57          58          59          60
    1   0.0000311   0.0000240   0.0000235   0.0000166   0.0000159   0.0000100
  
*** Unpaired Electrons
 Yamaguchi Nd:         2.54
 Head-Gordon Nu:       2.24
 Head-Gordon Nu_nl:    2.04
  
**************************************************
 RAS-CI total energy for state   6:   -513.812428628802
  Excitation energy (eV) =  5.999547344367
  State symmetry: A1    (C2v      )
  <S^2>      :  2.0000
  Dipole Moment:   -0.0000 X     0.0000 Y    -1.3662 Z
  Trans. Moment:    0.0000 X    -0.0000 Y     0.0000 Z
  Strength   :  0.000000
  Natural transition orbitals ( 1 -> 6 ):
   e-/hole pair  1 alpha:  ampl =  0.019958 (  0.0%)   [9 : 10]
   e-/hole pair  2 alpha:  ampl =  0.019958 (  0.0%)   [8 : 11]
   e-/hole pair  1 beta :  ampl =  0.659856 ( 43.5%)   [9 : 10]
   e-/hole pair  2 beta :  ampl =  0.659855 ( 43.5%)   [8 : 11]
   Sum of square amplitudes: 0.88

 NATURAL OCCUPATION NUMBERS (higher than 1.0E-05)
            1           2           3           4           5           6
    1   2.0000000   1.9999997   1.9999994   1.9999991   1.9999990   1.9999990
            7           8           9          10          11          12
    1   1.9853954   1.9770485   1.9603131   1.4989337   1.4989326   1.4857255
           13          14          15          16          17          18
    1   1.4857244   0.0469483   0.0090634   0.0090633   0.0077313   0.0048994
           19          20          21          22          23          24
    1   0.0046065   0.0038084   0.0027591   0.0023860   0.0023860   0.0022740
           25          26          27          28          29          30
    1   0.0021443   0.0013432   0.0013432   0.0011888   0.0008722   0.0008722
           31          32          33          34          35          36
    1   0.0004589   0.0004084   0.0004084   0.0003292   0.0003187   0.0002919
           37          38          39          40          41          42
    1   0.0002415   0.0002415   0.0001919   0.0001449   0.0001357   0.0001357
           43          44          45          46          47          48
    1   0.0001063   0.0001063   0.0000823   0.0000602   0.0000585   0.0000585
           49          50          51          52          53          54
    1   0.0000544   0.0000488   0.0000488   0.0000480   0.0000404   0.0000398
           55          56          57          58          59          60
    1   0.0000337   0.0000337   0.0000307   0.0000282   0.0000264   0.0000107

  Amplitudes : 
  
 | HOLE  | ALPHA     | BETA      | PART  |    AMPLITUDE 
--------------------------------------------------
 |       | 111111100 | 111101000 |       |     6.4263923986344E-01
 |       | 111111100 | 111010100 |       |     6.4263988445076E-01
 |       | 111111100 | 110101010 |       |     1.0097097793797E-01
 |       | 111111100 | 110010110 |       |     1.0097103557870E-01
 |       | 110111110 | 111101000 |       |     1.0765237872888E-01
 |       | 110111110 | 111010100 |       |     1.0765244686548E-01
--------------------------------------------------
*** Contributions RASCI wfn    Active:  88.52
                                 Hole:   0.00
                                 Part:  11.48

      Mulliken population analysis 
 ---------------------------------------------------
   Atom    Charge (a.u.)   Spin (a.u.)  
 ---------------------------------------------------
   1  N   -0.558542        0.950238 
   2 Cl    0.558542        1.049762 
 ---------------------------------------------------
   Sum:    0.000000        2.000000 
 ---------------------------------------------------
 
  
 NATURAL OCCUPATION NUMBERS (higher than 1.0E-05)
            1           2           3           4           5           6
    1   2.0000000   1.9999997   1.9999994   1.9999991   1.9999990   1.9999990
            7           8           9          10          11          12
    1   1.9853954   1.9770485   1.9603131   1.4989337   1.4989326   1.4857255
           13          14          15          16          17          18
    1   1.4857244   0.0469483   0.0090634   0.0090633   0.0077313   0.0048994
           19          20          21          22          23          24
    1   0.0046065   0.0038084   0.0027591   0.0023860   0.0023860   0.0022740
           25          26          27          28          29          30
    1   0.0021443   0.0013432   0.0013432   0.0011888   0.0008722   0.0008722
           31          32          33          34          35          36
    1   0.0004589   0.0004084   0.0004084   0.0003292   0.0003187   0.0002919
           37          38          39          40          41          42
    1   0.0002415   0.0002415   0.0001919   0.0001449   0.0001357   0.0001357
           43          44          45          46          47          48
    1   0.0001063   0.0001063   0.0000823   0.0000602   0.0000585   0.0000585
           49          50          51          52          53          54
    1   0.0000544   0.0000488   0.0000488   0.0000480   0.0000404   0.0000398
           55          56          57          58          59          60
    1   0.0000337   0.0000337   0.0000307   0.0000282   0.0000264   0.0000107
  
*** Unpaired Electrons
 Yamaguchi Nd:         3.40
 Head-Gordon Nu:       2.22
 Head-Gordon Nu_nl:    2.31
  
**************************************************
 RAS-CI total energy for state   7:   -513.812428628794
  Excitation energy (eV) =  5.999547344588
  State symmetry: A2    (C2v      )
  <S^2>      :  2.0000
  Dipole Moment:    0.0000 X     0.0000 Y    -1.3662 Z
  Trans. Moment:    0.0000 X    -0.0000 Y    -0.0000 Z
  Strength   :  0.000000
  Natural transition orbitals ( 1 -> 7 ):
   e-/hole pair  1 alpha:  ampl =  0.019958 (  0.0%)   [9 : 10]
   e-/hole pair  2 alpha:  ampl =  0.019958 (  0.0%)   [8 : 11]
   e-/hole pair  1 beta :  ampl =  0.659857 ( 43.5%)   [9 : 10]
   e-/hole pair  2 beta :  ampl =  0.659854 ( 43.5%)   [8 : 11]
   Sum of square amplitudes: 0.88

 NATURAL OCCUPATION NUMBERS (higher than 1.0E-05)
            1           2           3           4           5           6
    1   2.0000000   1.9999997   1.9999994   1.9999991   1.9999990   1.9999990
            7           8           9          10          11          12
    1   1.9853954   1.9770485   1.9603131   1.4989351   1.4989311   1.4857270
           13          14          15          16          17          18
    1   1.4857230   0.0469483   0.0090634   0.0090633   0.0077313   0.0048994
           19          20          21          22          23          24
    1   0.0046065   0.0038084   0.0027591   0.0023861   0.0023860   0.0022740
           25          26          27          28          29          30
    1   0.0021443   0.0013432   0.0013432   0.0011888   0.0008722   0.0008722
           31          32          33          34          35          36
    1   0.0004589   0.0004084   0.0004084   0.0003292   0.0003187   0.0002919
           37          38          39          40          41          42
    1   0.0002415   0.0002415   0.0001919   0.0001449   0.0001357   0.0001357
           43          44          45          46          47          48
    1   0.0001063   0.0001063   0.0000823   0.0000602   0.0000585   0.0000585
           49          50          51          52          53          54
    1   0.0000544   0.0000488   0.0000488   0.0000480   0.0000404   0.0000398
           55          56          57          58          59          60
    1   0.0000337   0.0000337   0.0000307   0.0000282   0.0000264   0.0000107

  Amplitudes : 
  
 | HOLE  | ALPHA     | BETA      | PART  |    AMPLITUDE 
--------------------------------------------------
 |       | 111111100 | 111100100 |       |     6.4264026469907E-01
 |       | 111111100 | 111011000 |       |    -6.4263885961294E-01
 |       | 111111100 | 110100110 |       |     1.0097113182998E-01
 |       | 111111100 | 110011010 |       |    -1.0097088175071E-01
 |       | 110111110 | 111100100 |       |     1.0765254060976E-01
 |       | 110111110 | 111011000 |       |    -1.0765228502257E-01
--------------------------------------------------
*** Contributions RASCI wfn    Active:  88.52
                                 Hole:   0.00
                                 Part:  11.48

      Mulliken population analysis 
 ---------------------------------------------------
   Atom    Charge (a.u.)   Spin (a.u.)  
 ---------------------------------------------------
   1  N   -0.558542        0.950238 
   2 Cl    0.558542        1.049762 
 ---------------------------------------------------
   Sum:    0.000000        2.000000 
 ---------------------------------------------------
 
  
 NATURAL OCCUPATION NUMBERS (higher than 1.0E-05)
            1           2           3           4           5           6
    1   2.0000000   1.9999997   1.9999994   1.9999991   1.9999990   1.9999990
            7           8           9          10          11          12
    1   1.9853954   1.9770485   1.9603131   1.4989351   1.4989311   1.4857270
           13          14          15          16          17          18
    1   1.4857230   0.0469483   0.0090634   0.0090633   0.0077313   0.0048994
           19          20          21          22          23          24
    1   0.0046065   0.0038084   0.0027591   0.0023861   0.0023860   0.0022740
           25          26          27          28          29          30
    1   0.0021443   0.0013432   0.0013432   0.0011888   0.0008722   0.0008722
           31          32          33          34          35          36
    1   0.0004589   0.0004084   0.0004084   0.0003292   0.0003187   0.0002919
           37          38          39          40          41          42
    1   0.0002415   0.0002415   0.0001919   0.0001449   0.0001357   0.0001357
           43          44          45          46          47          48
    1   0.0001063   0.0001063   0.0000823   0.0000602   0.0000585   0.0000585
           49          50          51          52          53          54
    1   0.0000544   0.0000488   0.0000488   0.0000480   0.0000404   0.0000398
           55          56          57          58          59          60
    1   0.0000337   0.0000337   0.0000307   0.0000282   0.0000264   0.0000107
  
*** Unpaired Electrons
 Yamaguchi Nd:         3.40
 Head-Gordon Nu:       2.22
 Head-Gordon Nu_nl:    2.31
  
**************************************************
 RAS-CI total energy for state   8:   -513.807517727388
  Excitation energy (eV) =  6.133179770862
  State symmetry: A1    (C2v      )
  <S^2>      :  2.0000
  Dipole Moment:    0.0000 X     0.0000 Y    -1.3707 Z
  Trans. Moment:   -0.0000 X    -0.0000 Y    -0.0000 Z
  Strength   :  0.000000
  Natural transition orbitals ( 1 -> 8 ):
   e-/hole pair  1 alpha:  ampl =  0.003425 (  0.0%)   [9 : 10]
   e-/hole pair  2 alpha:  ampl =  0.003425 (  0.0%)   [8 : 11]
   e-/hole pair  1 beta :  ampl =  0.659293 ( 43.5%)   [9 : 10]
   e-/hole pair  2 beta :  ampl =  0.659291 ( 43.5%)   [8 : 11]
   Sum of square amplitudes: 0.87

 NATURAL OCCUPATION NUMBERS (higher than 1.0E-05)
            1           2           3           4           5           6
    1   2.0000000   1.9999997   1.9999994   1.9999991   1.9999990   1.9999990
            7           8           9          10          11          12
    1   1.9850319   1.9766648   1.9606150   1.4983382   1.4983346   1.4871380
           13          14          15          16          17          18
    1   1.4871344   0.0469405   0.0083739   0.0083739   0.0077406   0.0046682
           19          20          21          22          23          24
    1   0.0046682   0.0038487   0.0027757   0.0024749   0.0024749   0.0021544
           25          26          27          28          29          30
    1   0.0021544   0.0013480   0.0013480   0.0012234   0.0008712   0.0008712
           31          32          33          34          35          36
    1   0.0004677   0.0004650   0.0004650   0.0003296   0.0003296   0.0003229
           37          38          39          40          41          42
    1   0.0002481   0.0002481   0.0001934   0.0001492   0.0001472   0.0001472
           43          44          45          46          47          48
    1   0.0001132   0.0001132   0.0000612   0.0000612   0.0000580   0.0000580
           49          50          51          52          53          54
    1   0.0000549   0.0000526   0.0000526   0.0000424   0.0000394   0.0000394
           55          56          57          58          59          60
    1   0.0000341   0.0000341   0.0000313   0.0000246   0.0000246   0.0000114

  Amplitudes : 
  
 | HOLE  | ALPHA     | BETA      | PART  |    AMPLITUDE 
--------------------------------------------------
 |       | 111111100 | 111101000 |       |     6.4317372645144E-01
 |       | 111111100 | 111010100 |       |    -6.4317327087096E-01
 |       | 111111100 | 110101010 |       |     1.0129718080309E-01
 |       | 111111100 | 110010110 |       |    -1.0129706520196E-01
 |       | 110111110 | 111101000 |       |     1.0837813283992E-01
 |       | 110111110 | 111010100 |       |    -1.0837801561924E-01
--------------------------------------------------
*** Contributions RASCI wfn    Active:  88.71
                                 Hole:   0.00
                                 Part:  11.29

      Mulliken population analysis 
 ---------------------------------------------------
   Atom    Charge (a.u.)   Spin (a.u.)  
 ---------------------------------------------------
   1  N   -0.561384        0.948177 
   2 Cl    0.561384        1.051823 
 ---------------------------------------------------
   Sum:    0.000000        2.000000 
 ---------------------------------------------------
 
  
 NATURAL OCCUPATION NUMBERS (higher than 1.0E-05)
            1           2           3           4           5           6
    1   2.0000000   1.9999997   1.9999994   1.9999991   1.9999990   1.9999990
            7           8           9          10          11          12
    1   1.9850319   1.9766648   1.9606150   1.4983382   1.4983346   1.4871380
           13          14          15          16          17          18
    1   1.4871344   0.0469405   0.0083739   0.0083739   0.0077406   0.0046682
           19          20          21          22          23          24
    1   0.0046682   0.0038487   0.0027757   0.0024749   0.0024749   0.0021544
           25          26          27          28          29          30
    1   0.0021544   0.0013480   0.0013480   0.0012234   0.0008712   0.0008712
           31          32          33          34          35          36
    1   0.0004677   0.0004650   0.0004650   0.0003296   0.0003296   0.0003229
           37          38          39          40          41          42
    1   0.0002481   0.0002481   0.0001934   0.0001492   0.0001472   0.0001472
           43          44          45          46          47          48
    1   0.0001132   0.0001132   0.0000612   0.0000612   0.0000580   0.0000580
           49          50          51          52          53          54
    1   0.0000549   0.0000526   0.0000526   0.0000424   0.0000394   0.0000394
           55          56          57          58          59          60
    1   0.0000341   0.0000341   0.0000313   0.0000246   0.0000246   0.0000114
  
*** Unpaired Electrons
 Yamaguchi Nd:         3.39
 Head-Gordon Nu:       2.21
 Head-Gordon Nu_nl:    2.31
  
**************************************************
 RAS-CI total energy for state   9:   -513.789955395703
  Excitation energy (eV) =  6.611075130548
  State symmetry: A2    (C2v      )
  <S^2>      :  2.0000
  Dipole Moment:   -0.0000 X     0.0000 Y    -1.0444 Z
  Trans. Moment:    0.0000 X    -0.0000 Y    -0.6241 Z
  Strength   :  0.063092
  Natural transition orbitals ( 1 -> 9 ):
   e-/hole pair  1 alpha:  ampl =  0.226221 (  5.1%)   [9 : 10]
   e-/hole pair  2 alpha:  ampl =  0.082596 (  0.7%)   [8 : 11]
   e-/hole pair  1 beta :  ampl =  0.620553 ( 38.5%)   [9 : 10]
   e-/hole pair  2 beta :  ampl =  0.620552 ( 38.5%)   [8 : 11]
   Sum of square amplitudes: 0.87

 NATURAL OCCUPATION NUMBERS (higher than 1.0E-05)
            1           2           3           4           5           6
    1   2.0000000   1.9999997   1.9999992   1.9999991   1.9999991   1.9999990
            7           8           9          10          11          12
    1   1.9849053   1.9734055   1.8808426   1.5805392   1.5805379   1.3937083
           13          14          15          16          17          18
    1   1.3937070   0.1324163   0.0167965   0.0167964   0.0084768   0.0041087
           19          20          21          22          23          24
    1   0.0038948   0.0038948   0.0036172   0.0032135   0.0032135   0.0022082
           25          26          27          28          29          30
    1   0.0022082   0.0018181   0.0018181   0.0014673   0.0011516   0.0011516
           31          32          33          34          35          36
    1   0.0005937   0.0003783   0.0002871   0.0002871   0.0002635   0.0002635
           37          38          39          40          41          42
    1   0.0002547   0.0001973   0.0001973   0.0001798   0.0001314   0.0001314
           43          44          45          46          47          48
    1   0.0000832   0.0000783   0.0000783   0.0000722   0.0000722   0.0000655
           49          50          51          52          53          54
    1   0.0000655   0.0000472   0.0000472   0.0000461   0.0000448   0.0000448
           55          56          57          58          59          60
    1   0.0000426   0.0000319   0.0000319   0.0000267   0.0000267   0.0000136

  Amplitudes : 
  
 | HOLE  | ALPHA     | BETA      | PART  |    AMPLITUDE 
--------------------------------------------------
 |       | 111111100 | 111110000 |       |    -1.9811075188183E-01
 |       | 111111100 | 111100100 |       |     6.0120862270986E-01
 |       | 111111100 | 111011000 |       |     6.0121048570006E-01
 |       | 111111100 | 110110010 |       |     1.2891396115126E-01
 |       | 111111100 | 110100110 |       |     1.0004652093709E-01
 |       | 111111100 | 110011010 |       |     1.0004635231222E-01
 |       | 110111110 | 111110000 |       |     1.8747173024356E-01
 |       | 110111110 | 111100100 |       |     1.1142491133711E-01
 |       | 110111110 | 111011000 |       |     1.1142467332706E-01
--------------------------------------------------
*** Contributions RASCI wfn    Active:  88.21
                                 Hole:   0.00
                                 Part:  11.79

      Mulliken population analysis 
 ---------------------------------------------------
   Atom    Charge (a.u.)   Spin (a.u.)  
 ---------------------------------------------------
   1  N   -0.443750        1.140006 
   2 Cl    0.443750        0.859994 
 ---------------------------------------------------
   Sum:    0.000000        2.000000 
 ---------------------------------------------------
 
  
 NATURAL OCCUPATION NUMBERS (higher than 1.0E-05)
            1           2           3           4           5           6
    1   2.0000000   1.9999997   1.9999992   1.9999991   1.9999991   1.9999990
            7           8           9          10          11          12
    1   1.9849053   1.9734055   1.8808426   1.5805392   1.5805379   1.3937083
           13          14          15          16          17          18
    1   1.3937070   0.1324163   0.0167965   0.0167964   0.0084768   0.0041087
           19          20          21          22          23          24
    1   0.0038948   0.0038948   0.0036172   0.0032135   0.0032135   0.0022082
           25          26          27          28          29          30
    1   0.0022082   0.0018181   0.0018181   0.0014673   0.0011516   0.0011516
           31          32          33          34          35          36
    1   0.0005937   0.0003783   0.0002871   0.0002871   0.0002635   0.0002635
           37          38          39          40          41          42
    1   0.0002547   0.0001973   0.0001973   0.0001798   0.0001314   0.0001314
           43          44          45          46          47          48
    1   0.0000832   0.0000783   0.0000783   0.0000722   0.0000722   0.0000655
           49          50          51          52          53          54
    1   0.0000655   0.0000472   0.0000472   0.0000461   0.0000448   0.0000448
           55          56          57          58          59          60
    1   0.0000426   0.0000319   0.0000319   0.0000267   0.0000267   0.0000136
  
*** Unpaired Electrons
 Yamaguchi Nd:         3.73
 Head-Gordon Nu:       2.42
 Head-Gordon Nu_nl:    2.43
  
**************************************************
 RAS-CI total energy for state  10:   -513.740239161296
  Excitation energy (eV) =  7.963922699513
  State symmetry: B1    (C2v      )
  <S^2>      :  6.0000
  Dipole Moment:   -0.0000 X     0.0000 Y    -0.4266 Z
  Trans. Moment:   -0.0000 X     0.0000 Y     0.0000 Z
  Strength   :  0.000000
  Natural transition orbitals ( 1 -> 10 ):
   e-/hole pair  1 alpha:  ampl =  0.480134 ( 23.1%)   [9 : 10]
   e-/hole pair  2 alpha:  ampl =  0.029791 (  0.1%)   [8 : 11]
   e-/hole pair  1 beta :  ampl =  0.480134 ( 23.1%)   [9 : 10]
   e-/hole pair  2 beta :  ampl =  0.029791 (  0.1%)   [8 : 11]
   Sum of square amplitudes: 0.47

 NATURAL OCCUPATION NUMBERS (higher than 1.0E-05)
            1           2           3           4           5           6
    1   2.0000000   1.9999999   1.9999999   1.9999997   1.9999995   1.9999983
            7           8           9          10          11          12
    1   1.9851101   1.9801101   1.9775125   1.9765142   1.0084027   1.0072910
           13          14          15          16          17          18
    1   1.0002506   0.9999900   0.0094627   0.0073539   0.0065343   0.0058671
           19          20          21          22          23          24
    1   0.0056290   0.0055496   0.0040425   0.0029032   0.0029016   0.0022684
           25          26          27          28          29          30
    1   0.0021681   0.0019102   0.0017745   0.0012516   0.0008239   0.0007643
           31          32          33          34          35          36
    1   0.0005322   0.0003983   0.0003304   0.0003019   0.0002912   0.0002490
           37          38          39          40          41          42
    1   0.0002126   0.0002057   0.0001447   0.0001399   0.0000985   0.0000842
           43          44          45          46          47          48
    1   0.0000781   0.0000615   0.0000500   0.0000498   0.0000496   0.0000431
           49          50          51          52          53          54
    1   0.0000395   0.0000378   0.0000364   0.0000315   0.0000300   0.0000246
           55          56          57
    1   0.0000242   0.0000146   0.0000102

  Amplitudes : 
  
 | HOLE  | ALPHA     | BETA      | PART  |    AMPLITUDE 
--------------------------------------------------
 |       | 111111100 | 111100010 |       |    -4.6461562476765E-01
 |       | 111111010 | 111100100 |       |     4.6461562476787E-01
 |       | 111110110 | 111101000 |       |    -4.6461562476782E-01
 |       | 111101110 | 111110000 |       |     4.6461562476777E-01
--------------------------------------------------
*** Contributions RASCI wfn    Active:  89.88
                                 Hole:   0.00
                                 Part:  10.12

      Mulliken population analysis 
 ---------------------------------------------------
   Atom    Charge (a.u.)   Spin (a.u.)  
 ---------------------------------------------------
   1  N   -0.204770        1.124339 
   2 Cl    0.204770        0.875661 
 ---------------------------------------------------
   Sum:    0.000000        2.000000 
 ---------------------------------------------------
 
  
 NATURAL OCCUPATION NUMBERS (higher than 1.0E-05)
            1           2           3           4           5           6
    1   2.0000000   1.9999999   1.9999999   1.9999997   1.9999995   1.9999983
            7           8           9          10          11          12
    1   1.9851101   1.9801101   1.9775125   1.9765142   1.0084027   1.0072910
           13          14          15          16          17          18
    1   1.0002506   0.9999900   0.0094627   0.0073539   0.0065343   0.0058671
           19          20          21          22          23          24
    1   0.0056290   0.0055496   0.0040425   0.0029032   0.0029016   0.0022684
           25          26          27          28          29          30
    1   0.0021681   0.0019102   0.0017745   0.0012516   0.0008239   0.0007643
           31          32          33          34          35          36
    1   0.0005322   0.0003983   0.0003304   0.0003019   0.0002912   0.0002490
           37          38          39          40          41          42
    1   0.0002126   0.0002057   0.0001447   0.0001399   0.0000985   0.0000842
           43          44          45          46          47          48
    1   0.0000781   0.0000615   0.0000500   0.0000498   0.0000496   0.0000431
           49          50          51          52          53          54
    1   0.0000395   0.0000378   0.0000364   0.0000315   0.0000300   0.0000246
           55          56          57
    1   0.0000242   0.0000146   0.0000102
  
*** Unpaired Electrons
 Yamaguchi Nd:         4.29
 Head-Gordon Nu:       4.13
 Head-Gordon Nu_nl:    4.01
  
**************************************************
 RAS-CI total energy for state  11:   -513.740239155940
  Excitation energy (eV) =  7.963922845242
  State symmetry: B2    (C2v      )
  <S^2>      :  6.0000
  Dipole Moment:   -0.0000 X     0.0000 Y    -0.4266 Z
  Trans. Moment:   -0.0000 X     0.0000 Y    -0.0000 Z
  Strength   :  0.000000
  Natural transition orbitals ( 1 -> 11 ):
   e-/hole pair  1 alpha:  ampl =  0.480134 ( 23.1%)   [9 : 10]
   e-/hole pair  2 alpha:  ampl =  0.029791 (  0.1%)   [8 : 11]
   e-/hole pair  1 beta :  ampl =  0.480134 ( 23.1%)   [9 : 10]
   e-/hole pair  2 beta :  ampl =  0.029791 (  0.1%)   [8 : 11]
   Sum of square amplitudes: 0.47

 NATURAL OCCUPATION NUMBERS (higher than 1.0E-05)
            1           2           3           4           5           6
    1   2.0000000   1.9999999   1.9999999   1.9999997   1.9999995   1.9999983
            7           8           9          10          11          12
    1   1.9851101   1.9801101   1.9775125   1.9765142   1.0084027   1.0072910
           13          14          15          16          17          18
    1   1.0002506   0.9999899   0.0094627   0.0073539   0.0065343   0.0058671
           19          20          21          22          23          24
    1   0.0056289   0.0055496   0.0040425   0.0029032   0.0029016   0.0022684
           25          26          27          28          29          30
    1   0.0021681   0.0019102   0.0017745   0.0012517   0.0008239   0.0007643
           31          32          33          34          35          36
    1   0.0005322   0.0003983   0.0003304   0.0003019   0.0002912   0.0002490
           37          38          39          40          41          42
    1   0.0002126   0.0002057   0.0001447   0.0001399   0.0000985   0.0000842
           43          44          45          46          47          48
    1   0.0000781   0.0000615   0.0000500   0.0000498   0.0000496   0.0000431
           49          50          51          52          53          54
    1   0.0000395   0.0000378   0.0000364   0.0000315   0.0000300   0.0000246
           55          56          57
    1   0.0000242   0.0000146   0.0000102

  Amplitudes : 
  
 | HOLE  | ALPHA     | BETA      | PART  |    AMPLITUDE 
--------------------------------------------------
 |       | 111111100 | 111010010 |       |    -4.6461557395355E-01
 |       | 111111010 | 111010100 |       |     4.6461557395354E-01
 |       | 111110110 | 111011000 |       |    -4.6461557395355E-01
 |       | 111011110 | 111110000 |       |     4.6461557395361E-01
--------------------------------------------------
*** Contributions RASCI wfn    Active:  89.88
                                 Hole:   0.00
                                 Part:  10.12

      Mulliken population analysis 
 ---------------------------------------------------
   Atom    Charge (a.u.)   Spin (a.u.)  
 ---------------------------------------------------
   1  N   -0.204770        1.124339 
   2 Cl    0.204770        0.875661 
 ---------------------------------------------------
   Sum:    0.000000        2.000000 
 ---------------------------------------------------
 
  
 NATURAL OCCUPATION NUMBERS (higher than 1.0E-05)
            1           2           3           4           5           6
    1   2.0000000   1.9999999   1.9999999   1.9999997   1.9999995   1.9999983
            7           8           9          10          11          12
    1   1.9851101   1.9801101   1.9775125   1.9765142   1.0084027   1.0072910
           13          14          15          16          17          18
    1   1.0002506   0.9999899   0.0094627   0.0073539   0.0065343   0.0058671
           19          20          21          22          23          24
    1   0.0056289   0.0055496   0.0040425   0.0029032   0.0029016   0.0022684
           25          26          27          28          29          30
    1   0.0021681   0.0019102   0.0017745   0.0012517   0.0008239   0.0007643
           31          32          33          34          35          36
    1   0.0005322   0.0003983   0.0003304   0.0003019   0.0002912   0.0002490
           37          38          39          40          41          42
    1   0.0002126   0.0002057   0.0001447   0.0001399   0.0000985   0.0000842
           43          44          45          46          47          48
    1   0.0000781   0.0000615   0.0000500   0.0000498   0.0000496   0.0000431
           49          50          51          52          53          54
    1   0.0000395   0.0000378   0.0000364   0.0000315   0.0000300   0.0000246
           55          56          57
    1   0.0000242   0.0000146   0.0000102
  
*** Unpaired Electrons
 Yamaguchi Nd:         4.29
 Head-Gordon Nu:       4.13
 Head-Gordon Nu_nl:    4.01
  
**************************************************
 RAS-CI total energy for state  12:   -513.686279605088
  Excitation energy (eV) =  9.432236929427
  Warning: not all configurations have same symmetry
  State symmetry: *B2    (C2v      )
  <S^2>      :  2.0000
  Dipole Moment:    0.0000 X    -0.0000 Y    -0.4054 Z
  Trans. Moment:    0.0439 X    -0.0324 Y     0.0000 Z
  Strength   :  0.000687
  Natural transition orbitals ( 1 -> 12 ):
   e-/hole pair  1 alpha:  ampl =  0.527376 ( 27.8%)   [9 : 10]
   e-/hole pair  2 alpha:  ampl =  0.039074 (  0.2%)   [8 : 11]
   e-/hole pair  1 beta :  ampl =  0.056472 (  0.3%)   [9 : 10]
   e-/hole pair  2 beta :  ampl =  0.022727 (  0.1%)   [8 : 11]
   Sum of square amplitudes: 0.28

 NATURAL OCCUPATION NUMBERS (higher than 1.0E-05)
            1           2           3           4           5           6
    1   2.0000000   1.9999998   1.9999997   1.9999994   1.9999992   1.9999988
            7           8           9          10          11          12
    1   1.9841683   1.9750954   1.9722509   1.7043047   1.3095994   1.2095387
           13          14          15          16          17          18
    1   1.0010187   0.7742980   0.0095887   0.0076440   0.0074802   0.0063231
           19          20          21          22          23          24
    1   0.0060313   0.0059139   0.0047374   0.0032595   0.0032333   0.0022201
           25          26          27          28          29          30
    1   0.0020697   0.0019445   0.0016432   0.0015036   0.0008558   0.0008244
           31          32          33          34          35          36
    1   0.0005467   0.0003976   0.0003610   0.0003568   0.0003215   0.0003003
           37          38          39          40          41          42
    1   0.0002825   0.0002780   0.0001938   0.0001917   0.0001360   0.0001327
           43          44          45          46          47          48
    1   0.0000936   0.0000920   0.0000908   0.0000801   0.0000726   0.0000608
           49          50          51          52          53          54
    1   0.0000598   0.0000527   0.0000468   0.0000457   0.0000432   0.0000395
           55          56          57          58          59          60
    1   0.0000388   0.0000351   0.0000312   0.0000184   0.0000169   0.0000147

  Amplitudes : 
  
 | HOLE  | ALPHA     | BETA      | PART  |    AMPLITUDE 
--------------------------------------------------
 |       | 111111010 | 111101000 |       |    -1.4557643721776E-01
 |       | 111111010 | 111011000 |       |    -2.7976839509275E-01
 |       | 111111010 | 111010100 |       |     4.7706517399940E-01
 |       | 111110110 | 111110000 |       |     1.0396188970484E-01
 |       | 111110110 | 111101000 |       |    -3.5253637733832E-01
 |       | 111110110 | 111100100 |       |     3.7859446065112E-01
 |       | 111110110 | 111010100 |       |     1.0757473258327E-01
 |       | 111101110 | 111110000 |       |    -2.9115084141207E-01
 |       | 111011110 | 111110000 |       |    -3.9399354402198E-01
--------------------------------------------------
*** Contributions RASCI wfn    Active:  89.77
                                 Hole:   0.00
                                 Part:  10.23

      Mulliken population analysis 
 ---------------------------------------------------
   Atom    Charge (a.u.)   Spin (a.u.)  
 ---------------------------------------------------
   1  N   -0.209130        0.844687 
   2 Cl    0.209130        1.155313 
[...]
    18   -1.762835999787e-16
    19    1.094142063533e-17
    20   -1.365092932473e-16
    21   -1.286484086521e-01
    22   -2.251289022565e-08
    23    2.414933112650e-18
    24   -4.418784725398e-17
    25   -1.663179827805e-17
    26    2.396856426885e-04
    27   -1.131732168906e-09
    28   -3.410899650255e-17
    29   -1.094800043123e-17
    30   -1.200227571688e-09
    31   -1.255392614764e-13
    32   -2.501464605564e-17
    33   -3.819232814724e-17
    34    1.667352734687e-16
    35   -8.256903911464e-16
    36    1.092534505602e-15
    37   -5.103016120454e-02
    38    4.261182982824e-08
    39   -4.181084954359e-17
    40   -9.926725701122e-03
    41    1.019861429880e-08
    42   -3.107679755809e-17
    43    9.041094981558e-03
    44   -1.356041706826e-08
    45    8.710673662654e-17
    46    4.129537377952e-01
    47   -2.907999813936e-07
    48    6.371536624641e-17
    49   -6.633268150812e-01
    50    2.883417821644e-07
    51   -6.111246495382e-16
    52   -4.176840968911e-16
    53    2.334325512860e-01
    54    2.585361754542e-08
    55   -1.428736957753e-15
    56   -5.460763993880e-16
    57    3.691775076921e-16
    58    8.003548838408e-01
    59    8.978206137225e-08
    60   -3.515467750107e-15
    61   -3.063865962022e-15
    62   -5.430809363731e-17
    63   -1.436680550281e-03
    64    9.704419769232e-10
    65    1.530165758520e-16
    66    4.669598040474e-16
    67    6.592237981695e-08
    68   -1.174206135764e-12
Sym=X
Ene= 0.644899
Spin=Alpha
Occup=0
     1    1.064209495111e-16
     2    2.625557675426e-16
     3   -1.788631149389e-15
     4    4.380396742561e-15
     5    4.735648258283e-15
     6   -2.318774385561e-07
     7   -8.197087903881e-02
     8   -7.396346128926e-16
     9   -4.628290391769e-07
    10   -3.415895387887e-02
    11    4.149494191754e-15
    12    5.962072890404e-07
    13   -4.930409742957e-01
    14    1.941248858425e-16
    15   -6.035254954156e-17
    16   -7.438063998923e-09
    17    1.547368235768e-02
    18    7.023188685770e-17
    19    7.085521270193e-17
    20    2.928436942342e-15
    21   -2.259463950877e-08
    22    1.286489261342e-01
    23   -9.290375798766e-17
    24   -7.950495066626e-17
    25    3.504842373239e-16
    26    8.399681821648e-10
    27   -2.396694360774e-04
    28    3.058310274036e-18
    29    2.577713282034e-16
    30   -7.266828189138e-13
    31    1.102902494166e-09
    32    5.969384458698e-16
    33    2.798817149503e-16
    34   -2.712055845972e-15
    35    1.065220161446e-14
    36   -1.461026728394e-14
    37    6.334444867836e-09
    38    5.102916342354e-02
    39   -9.454687903105e-17
    40   -3.876210535029e-09
    41    9.926527152589e-03
    42    2.331265509955e-16
    43    1.949825323208e-08
    44   -9.041251728848e-03
    45   -1.281761440965e-15
    46   -1.128183088556e-07
    47   -4.129461456068e-01
    48    3.661663229913e-15
    49    4.942904051862e-08
    50    6.633183623662e-01
    51    3.699101178169e-15
    52    7.117146922705e-16
    53    1.627611883725e-08
    54   -2.334331146380e-01
    55   -1.350813751638e-15
    56    7.747988343774e-16
    57   -2.190298954498e-15
    58    8.606096272776e-08
    59   -8.003558649961e-01
    60   -2.880167293049e-15
    61    3.743116085182e-15
    62    8.129833046165e-16
    63   -1.086965296486e-08
    64    1.436526369870e-03
    65   -1.191673642717e-16
    66    2.845392852793e-16
    67   -4.377318566386e-13
    68   -6.578138119501e-08
Sym=X
Ene= 0.868398
Spin=Alpha
Occup=0
     1   -3.059775533455e-02
     2   -7.596559825033e-02
     3    1.243623241122e-01
     4    8.897435438584e-01
     5   -2.174572787177e+00
     6    4.657815214113e-16
     7   -2.342298745005e-16
     8    2.593616199599e-01
     9    2.631978393313e-16
    10   -7.488610453282e-16
    11    4.200039818947e-01
    12   -8.813150726180e-16
    13    3.623869460333e-16
    14   -1.536968674200e+00
    15    5.304101019589e-03
    16   -2.056812734154e-16
    17   -3.768406377571e-18
    18   -2.021359400797e-08
    19   -1.728773892133e-16
    20   -2.021899994107e-01
    21    5.447140241346e-16
    22    1.389378477454e-15
    23    4.460081060395e-08
    24    9.807605276367e-16
    25   -2.586690167793e-02
    26   -1.317265307680e-16
    27    2.034012063781e-16
    28   -2.094405624242e-08
    29    4.157412177112e-17
    30    7.442670603974e-17
    31    2.369094103974e-16
    32   -5.949661760791e-02
    33   -3.025986430620e-02
    34    4.039957578361e-01
    35   -1.581008989104e+00
    36    2.835394283244e+00
    37   -7.359130657547e-17
    38    6.809267685214e-16
    39   -4.533312988133e-02
    40   -4.697435689928e-17
    41    1.016673400293e-15
    42   -4.173479833580e-02
    43    4.052539405587e-17
    44   -2.388309691942e-15
    45    1.650978235197e-01
    46   -1.049549695615e-16
    47   -2.248785273738e-15
    48   -1.538906195334e-01
    49    4.520907077911e-16
    50    2.828222352984e-15
    51   -7.418597487981e-01
    52   -1.832303776266e-01
    53   -2.479889645359e-16
    54   -5.867075841750e-16
    55   -1.592808333702e-07
    56    1.124760787019e-15
    57   -4.909422454059e-01
    58   -2.808591248910e-18
    59   -1.705212914580e-15
    60    6.800692648120e-08
    61   -1.142352669588e-15
    62   -6.977470587693e-02
    63    1.988460596859e-16
    64   -5.471178800765e-16
    65   -1.335836641430e-08
    66    6.742180584990e-17
    67   -8.745857252171e-18
    68    2.339699645145e-16
Sym=X
Ene= 1.162351
Spin=Alpha
Occup=0
     1    1.131399478029e-02
     2    1.865075317320e-02
     3    1.723290894381e-01
     4   -6.592448322343e-01
     5   -2.614678856902e+00
     6    8.698207164697e-16
     7   -4.039212880201e-16
     8   -9.502465732675e-02
     9   -8.408215370750e-16
    10    4.906995257281e-17
    11   -9.328949927920e-01
    12    6.613046840032e-17
    13    3.015594331245e-16
    14   -1.209481405096e+00
    15    3.428544666871e-02
    16   -6.165705468351e-17
    17    5.866036835052e-16
    18   -8.678818136178e-10
    19   -4.805822853231e-16
    20   -1.603000175500e-01
    21    1.417760530970e-15
    22    3.014503378855e-15
    23    3.548284454014e-07
    24    7.166984872153e-16
    25   -4.617930005954e-02
    26   -1.598922139522e-16
    27    7.805854756342e-17
    28    8.156979126118e-09
    29   -2.388628956088e-16
    30    9.543620242234e-17
    31    1.344046750298e-16
    32   -7.239816761909e-02
    33   -2.925712392100e-02
    34    5.104268574558e-01
    35   -2.518414201568e+00
    36    4.572361757735e+00
    37    1.903686247903e-16
    38    1.177632568463e-15
    39    4.583564046441e-02
    40    1.871361354179e-16
    41    2.685142888755e-15
    42    6.259708564854e-03
    43   -2.046205777860e-16
    44   -7.725931085999e-15
    45    1.625761522940e-02
    46   -1.079444993910e-15
    47    1.403934893945e-15
    48   -4.257681274494e-01
    49    1.191025685570e-15
    50    1.832667496309e-15
    51   -1.958148865507e+00
    52    2.269161661115e-01
    53    7.634798118641e-17
    54   -2.973753015030e-16
    55   -2.053805232975e-07
    56    7.918294479161e-16
    57    1.097900765410e+00
    58    1.050657651667e-15
    59   -2.435908961873e-16
    60   -1.706356501372e-07
    61   -4.355398601626e-15
    62   -5.236229817978e-02
    63   -1.886569117228e-16
    64   -1.363860218896e-15
    65    5.617927479467e-08
    66   -3.289298345714e-18
    67   -1.534547109278e-18
    68    2.988747263959e-16
Sym=X
Ene= 1.188552
Spin=Alpha
Occup=0
     1    3.441573840246e-17
     2    2.515769047315e-16
     3   -2.842777967116e-15
     4    5.161575856883e-15
     5   -6.711271415696e-16
     6    6.513376399470e-17
     7   -4.646865579634e-16
     8   -8.921603997753e-16
     9   -6.466054556881e-16
    10    1.578043489857e-15
    11    8.869800277168e-16
    12    1.061787861321e-15
    13   -3.526679547540e-15
    14   -2.985677641291e-16
    15   -7.434648926934e-17
    16    1.772141228987e-17
    17    4.024444067664e-16
    18    7.673608661082e-16
    19   -1.741167278271e-02
    20   -3.229938245150e-17
    21    1.269919650307e-15
    22   -1.151120214982e-15
    23   -2.860085222683e-14
    24    9.904862786629e-01
    25    1.161013686404e-16
    26    5.157507662707e-17
    27    3.965419859124e-17
    28   -2.184406168397e-16
    29    1.249940245408e-02
    30    2.436679108763e-16
    31    3.048310935311e-17
    32    6.404375079196e-17
    33    1.438517369750e-16
    34   -7.671585080446e-16
    35    3.445450414242e-15
    36   -3.717029880427e-15
    37   -2.176178432491e-16
    38   -1.881975539094e-16
    39    4.440912361610e-16
    40   -3.459375850126e-16
    41   -1.555691209503e-16
    42    1.853149547983e-16
    43    1.571111214986e-15
    44    1.230704046282e-15
    45    8.674588004842e-17
    46   -1.733502568213e-15
    47   -2.548555187693e-15
    48   -2.314421748466e-15
    49    1.453566873637e-16
    50    3.713356532105e-15
    51    3.650776564590e-15
    52   -2.527481769646e-17
    53   -4.143902234107e-16
    54    1.553796788430e-15
    55    4.985349276369e-15
    56   -1.155510920694e-01
    57   -4.315897727615e-16
    58    5.755406431193e-16
    59   -2.676774527615e-15
    60    4.549220801449e-15
    61   -1.646322646252e-01
    62    5.402174716032e-16
    63   -2.199978205676e-16
    64   -1.727466611520e-16
    65    2.258255992804e-15
    66   -8.951808033978e-02
    67   -1.512412122856e-17
    68   -1.025980123689e-15
Sym=X
Ene= 1.188552
Spin=Alpha
Occup=0
     1    4.078545814756e-08
     2    1.249301277077e-07
     3   -6.089605906977e-07
     4    8.060418230327e-07
     5   -2.684399956317e-06
     6   -1.252371566960e-15
     7   -8.448957745060e-16
     8   -1.754641548963e-07
     9    1.985141800016e-15
    10    2.817551678754e-16
    11   -4.216935135118e-07
    12   -9.056561916712e-16
    13    8.130964754117e-16
    14   -1.338835078523e-06
    15    3.083151222502e-08
    16    1.050343923030e-15
    17   -5.141263201495e-16
    18    1.741167269138e-02
    19    1.203250073866e-15
    20   -5.395789306276e-07
    21   -2.282086510371e-15
    22    1.936664511843e-15
    23   -9.904862786163e-01
    24   -2.880224476560e-14
    25   -6.944332537679e-08
    26    9.179435105868e-16
    27   -7.755291147384e-16
    28   -1.249940248467e-02
    29   -3.606835048729e-16
    30    3.314137622782e-17
    31   -9.076477496683e-16
    32   -2.597286104414e-08
    33   -6.464806631810e-09
    34    1.900622920878e-07
    35   -1.234731798324e-06
    36    3.240813502546e-06
    37   -2.585648615324e-16
    38   -8.363793591104e-17
    39    4.810298716938e-08
    40   -2.954277415119e-16
    41   -5.151846291078e-16
    42   -3.452276339047e-09
    43    6.546536207903e-16
    44    5.647988318958e-16
    45    3.714954077160e-08
    46    7.129338614575e-16
    47   -1.150779596010e-15
    48   -6.204155959725e-07
    49   -5.850889209083e-16
    50    2.588017346648e-16
    51   -1.144745861184e-06
    52    6.048376256065e-09
    53    1.203070986222e-16
    54   -5.377901578971e-16
    55    1.155510920975e-01
    56    3.596957427368e-15
    57    6.689048978130e-07
    58   -4.594828339989e-16
    59    6.353345303695e-16
    60    1.646322645212e-01
    61    3.352788075361e-15
    62   -5.952361807205e-08
    63   -1.106859806879e-15
    64    2.080041311727e-16
    65    8.951808035101e-02
    66    2.523871206566e-15
    67    1.540986960561e-17
    68    1.159844664886e-15
Sym=X
Ene= 1.482210
Spin=Alpha
Occup=0
     1   -2.071165991408e-16
     2   -7.841227184733e-16
     3    4.526671706093e-15
     4   -6.239431858682e-15
     5    1.539558569382e-14
     6   -2.506628942234e-04
     7    1.352494582019e-08
     8    5.288903484133e-16
     9   -4.871972526487e-02
    10    2.187931770332e-08
    11    2.427140253055e-15
    12    4.549599994004e-01
    13   -1.038292405387e-07
    14    8.295627161902e-15
    15    2.097027000815e-16
    16   -5.853197046795e-03
    17    1.578494783262e-09
    18   -5.933956833656e-16
    19    8.708027617422e-17
    20    4.975777884899e-15
    21    1.110778512723e+00
    22   -2.732287265100e-07
    23   -2.163704504526e-15
    24   -1.232240243049e-15
    25    3.600406342710e-16
    26    6.412517870624e-04
    27   -2.286340981074e-10
    28   -1.143529948162e-16
    29    5.900589341947e-16
    30   -2.611626757690e-08
    31   -1.755227594223e-15
    32    5.685504402855e-17
    33   -2.695342244275e-17
    34   -1.117167834794e-15
    35    6.682427377533e-15
    36   -1.858255783666e-14
    37    4.263932261784e-02
    38   -9.116426548191e-09
    39   -2.013996642977e-16
    40    2.637420273845e-02
    41   -5.877880942285e-09
    42    1.336288901811e-16
    43   -1.014716028340e-01
    44    2.344998984587e-08
    45   -1.333409875481e-15
    46   -9.556980151032e-02
    47    1.833695734346e-08
    48    5.855883901653e-15
    49   -3.600983995084e-01
    50    8.616072289416e-08
    51    5.264737530183e-15
    52   -8.551197705190e-16
    53    1.517318216292e-01
    54   -3.834507156101e-08
    55   -2.152252208587e-15
    56   -1.093608410721e-15
    57   -3.280809602606e-15
    58    5.763814793476e-01
    59   -1.432655984315e-07
    60    1.236811803108e-15
    61   -1.065120677143e-16
    62    4.258936785977e-16
    63    1.309359938018e-01
    64   -3.224143730304e-08
    65    1.115719172155e-15
    66   -3.513397113325e-16
    67    2.277066427827e-08
    68   -7.555633861074e-14
Sym=X
Ene= 1.482210
Spin=Alpha
Occup=0
     1   -4.933362525069e-16
     2   -1.540644389353e-15
     3    6.971656448738e-15
     4   -6.317361413252e-15
     5    1.568627500946e-14
     6   -8.079011868994e-09
     7    2.506937564803e-04
     8    2.080915106991e-15
     9    2.733238214912e-09
    10    4.871969024677e-02
    11    3.743587800772e-15
    12   -1.124565644958e-07
    13   -4.549601139610e-01
    14    9.721612065515e-15
    15   -1.927938285470e-17
    16    1.334466736744e-09
    17    5.853235546207e-03
    18    1.349636999660e-16
    19    1.253808150988e-16
    20    1.450760169626e-14
    21   -2.742671388686e-07
    22   -1.110778640207e+00
    23   -1.545172580324e-15
    24   -9.711608223357e-16
    25    6.665343571401e-16
    26   -1.552899061988e-10
    27   -6.412874378371e-04
    28   -3.742838617828e-16
    29    6.122011260047e-16
    30   -2.426509053873e-14
    31    2.615558774737e-08
    32   -2.774143100142e-16
    33   -3.525493447439e-17
    34    1.286903795666e-15
    35   -1.701133221021e-15
    36   -1.549770678161e-14
    37   -1.134303890399e-08
    38   -4.263933105798e-02
    39   -5.970196870648e-16
    40   -6.980707668887e-09
    41   -2.637416255945e-02
    42    8.427349652628e-16
    43    2.636204958726e-08
    44    1.014713077276e-01
    45   -3.312997918737e-15
    46    2.518938901613e-08
    47    9.557042078586e-02
    48    1.348430438558e-14
    49    9.222030958207e-08
    50    3.600982458486e-01
    51    3.802167922370e-15
    52    1.652621637454e-15
    53   -3.688787603996e-08
    54   -1.517318473652e-01
    55    1.123441043702e-15
    56    1.032957509041e-16
    57   -6.833813746934e-15
    58   -1.413077813943e-07
    59   -5.763816027114e-01
    60    5.134302135207e-16
    61   -3.352184558725e-16
    62   -3.680930791210e-16
    63   -3.250014703137e-08
    64   -1.309358376208e-01
    65   -3.469537142651e-16
    66    6.079700395314e-16
    67   -3.516335255284e-14
    68   -2.307023247019e-08
Sym=X
Ene= 1.638991
Spin=Alpha
Occup=0
     1    2.599759749547e-02
     2    7.550984209691e-02
     3   -2.112520199578e-01
     4    6.543371010828e-02
     5   -2.959778914277e+00
     6    4.245094591134e-16
     7   -1.108103087220e-15
     8   -2.222521194830e-01
     9   -1.157545282409e-15
    10    3.870555166401e-15
    11   -6.178707842046e-01
    12    9.007281356285e-16
    13   -7.234526176717e-15
    14   -1.860908578687e+00
    15    2.285126572152e-02
    16   -1.611661299381e-16
    17   -4.253575757169e-16
    18    7.580351144545e-09
    19   -3.628482768854e-16
    20   -1.553580245729e+00
    21    2.424682445065e-15
    22   -1.081462966709e-14
    23    3.227863937123e-07
    24   -1.678793071382e-16
    25   -7.438953794079e-02
    26   -8.330914770787e-16
    27    3.680666915865e-16
    28    5.774469314678e-09
    29    4.228370112410e-17
    30   -1.566879424033e-16
    31    1.123068270685e-15
    32   -1.434553825008e-03
    33    1.824607932095e-03
    34    1.674999339974e-02
    35   -8.068963396396e-01
    36    3.781385976399e+00
    37    4.877089790068e-16
    38    1.280464230803e-15
    39    7.617513228922e-02
    40    6.447555994252e-16
    41    2.192918185341e-15
    42   -1.262225818367e-02
    43   -2.830361340009e-15
    44   -9.515511832290e-15
    45    1.585265495523e-01
    46    2.441344459149e-15
    47    7.700459035557e-15
    48   -1.501554760448e+00
    49   -1.626334298680e-15
    50    2.978564072142e-15
    51   -1.219872485644e+00
    52   -2.870854592129e-01
    53    2.100252825100e-15
    54   -2.391698197135e-15
    55    5.840250368435e-08
    56    5.238607577309e-15
    57    1.266787158244e+00
    58   -4.164154462109e-16
    59   -7.045783547986e-15
    60   -1.489581246150e-07
    61   -6.814679916668e-15
    62   -1.513760667759e-02
    63    1.479888234849e-15
    64   -3.262425863818e-15
    65   -1.068741037159e-07
    66    1.255608102067e-15
    67    2.503124641392e-17
    68    1.863564106904e-16
Sym=X
Ene= 2.054273
Spin=Alpha
Occup=0
     1    4.804450432174e-16
     2    1.657279081023e-15
     3   -1.570352726162e-14
     4    4.744977313763e-14
     5   -1.556385185549e-14
     6    3.676251935454e-15
     7    8.916776867213e-15
     8   -1.803157568074e-14
     9   -2.690837500507e-15
    10   -1.647117822286e-14
    11    4.459756570724e-14
    12    1.158763203396e-14
    13   -2.888619329450e-14
    14   -2.282528915217e-14
    15    9.020838281199e-16
    16    1.376981187208e-16
    17   -1.267229402624e-15
    18   -1.264337876816e-15
    19   -3.839057680004e-03
    20   -1.051983262067e-14
    21    4.745245404737e-15
    22   -1.347786567340e-14
    23   -1.183963680134e-14
    24   -1.185205371614e-01
    25    2.818419235767e-15
    26    2.948606641110e-15
    27   -1.059433734997e-14
    28   -9.212593344685e-16
    29   -5.798627086921e-04
    30    8.396390884396e-16
    31    4.274911941204e-16
    32   -9.898975918514e-17
    33   -4.190726142396e-16
    34    5.857395653174e-18
    35    5.829218501689e-15
    36   -5.659623195150e-15
    37   -7.065914663770e-16
    38   -6.260529756661e-16
    39   -4.039891014461e-16
    40   -1.338974546760e-15
    41    9.642475092631e-16
    42    1.275362042127e-15
    43    5.903394772652e-15
    44   -1.302303026826e-15
    45   -6.512473027962e-15
    46   -5.282008150074e-15
    47    2.179364843396e-15
    48    1.321053859984e-14
    49   -5.223571944079e-15
    50    2.018010187401e-14
    51    7.336815413776e-15
    52    3.288907789072e-14
    53   -4.309556647985e-14
    54    1.522598852880e-13
    55   -1.260124274892e-13
    56   -1.190653174426e+00
    57   -4.178812671460e-14
    58    3.727804986186e-14
    59   -1.334777982413e-13
    60    9.266646830300e-14
    61    8.855221708420e-01
    62    1.258279871415e-15
    63    8.262171292191e-15
    64   -3.798618320978e-14
    65    1.445562267300e-14
    66    9.005673872994e-02
    67   -2.996598245095e-15
    68    1.101615893085e-14
[5D7F]

======= END OF MOLDEN-FORMATTED INPUT FILE =======


        *************************************************************
        *                                                           *
        *  Thank you very much for using Q-Chem.  Have a nice day.  *
        *                                                           *
        *************************************************************


