                  Welcome to Q-Chem
     A Quantum Leap Into The Future Of Chemistry


 Q-Chem 6.0 (devel), Q-Chem, Inc., Pleasanton, CA (2022)

 E. Epifanovsky,  A. T. B. Gilbert,  Xintian Feng,  Joonho Lee,  Yuezhi Mao,  
 N. Mardirossian,  P. Pokhilko,  A. White,  M. Wormit,  M. P. Coons,  
 A. L. Dempwolff,  Zhengting Gan,  D. Hait,  P. R. Horn,  L. D. Jacobson,  
 I. Kaliman,  J. Kussmann,  A. W. Lange,  Ka Un Lao,  D. S. Levine,  Jie Liu,  
 S. C. McKenzie,  A. F. Morrison,  K. Nanda,  F. Plasser,  D. R. Rehn,  
 M. L. Vidal,  Zhi-Qiang You,  Ying Zhu,  B. Alam,  B. Albrecht,  
 A. Aldossary,  E. Alguire,  J. H. Andersen,  V. Athavale,  D. Barton,  
 K. Begam,  A. Behn,  N. Bellonzi,  Y. A. Bernard,  E. J. Berquist,  
 H. Burton,  A. Carreras,  K. Carter-Fenk,  Romit Chakraborty,  
 Chandrima Chakravarty,  Junhan Chen,  A. D. Chien,  K. D. Closser,  
 V. Cofer-Shabica,  L. Cunha,  S. Dasgupta,  Jia Deng,  M. de Wergifosse,  
 M. Diedenhofen,  Hainam Do,  S. Ehlert,  Po-Tung Fang,  S. Fatehi,  
 Qingguo Feng,  T. Friedhoff,  B. Ganoe,  J. Gayvert,  Qinghui Ge,  
 G. Gidofalvi,  M. Goldey,  J. Gomes,  C. Gonzalez-Espinoza,  S. Gulania,  
 A. Gunina,  J. A. Gyamfi,  M. W. D. Hanson-Heine,  P. H. P. Harbach,  
 A. W. Hauser,  M. F. Herbst,  M. Hernandez Vera,  M. Hodecker,  
 Z. C. Holden,  S. Houck,  Xunkun Huang,  Kerwin Hui,  B. C. Huynh,  
 K. Ikeda,  M. Ivanov,  Hyunjun Ji,  Zuxin Jin,  Hanjie Jiang,  B. Kaduk,  
 S. Kaehler,  R. Kang,  K. Khistyaev,  Jaehoon Kim,  Yongbin Kim,  
 P. Klunzinger,  Z. Koczor-Benda,  Joong Hoon Koh,  D. Kosenkov,  
 Saikiran Kotaru,  L. Koulias,  T. Kowalczyk,  C. M. Krauter,  K. Kue,  
 A. Kunitsa,  T. Kus,  A. Landau,  K. V. Lawler,  D. Lefrancois,  S. Lehtola,  
 Rain Li,  Shaozhi Li,  Yi-Pei Li,  Jiashu Liang,  M. Liebenthal,  
 Hung-Hsuan Lin,  You-Sheng Lin,  Fenglai Liu,  Kuan-Yu Liu,  
 M. Loipersberger,  A. Luenser,  C. Malbon,  A. Manjanath,  P. Manohar,  
 E. Mansoor,  S. F. Manzer,  Shan-Ping Mao,  A. V. Marenich,  T. Markovich,  
 S. Mason,  F. Matz,  S. A. Maurer,  P. F. McLaughlin,  M. F. S. J. Menger,  
 J.-M. Mewes,  S. A. Mewes,  P. Morgante,  Mohammad Mostafanejad,  
 J. W. Mullinax,  K. J. Oosterbaan,  G. Paran,  V. Parravicini,  
 Alexander C. Paul,  Suranjan K. Paul,  F. Pavosevic,  Zheng Pei,  S. Prager,  
 E. I. Proynov,  E. Ramos,  B. Rana,  A. E. Rask,  A. Rettig,  R. M. Richard,  
 F. Rob,  E. Rossomme,  T. Scheele,  M. Scheurer,  M. Schneider,  
 P. E. Schneider,  N. Sergueev,  S. M. Sharada,  Hengyuan Shen,  
 W. Skomorowski,  D. W. Small,  C. J. Stein,  Yingli Su,  Yu-Chuan Su,  
 E. J. Sundstrom,  Zhen Tao,  J. Thirman,  Hung-Yi Tsai,  T. Tsuchimochi,  
 N. M. Tubman,  C. Utku,  S. P. Veccham,  O. Vydrov,  J. Wenzel,  
 Jonathan Wong,  J. Witte,  A. Yamada,  Chou-Hsun Yang,  Kun Yao,  
 S. Yeganeh,  S. R. Yost,  A. Zech,  F. Zeller,  Igor Ying Zhang,  
 Xing Zhang,  Yu Zhang,  D. Zuev,  A. Aspuru-Guzik,  A. T. Bell,  
 N. A. Besley,  K. B. Bravaya,  B. R. Brooks,  D. Casanova,  Jeng-Da Chai,  
 Hsing-Ta Chen,  S. Coriani,  C. J. Cramer,  A. E. DePrince, III,  
 R. A. DiStasio Jr.,  A. Dreuw,  B. D. Dunietz,  T. R. Furlani,  
 W. A. Goddard III,  S. Grimme,  S. Hammes-Schiffer,  T. Head-Gordon,  
 W. J. Hehre,  Chao-Ping Hsu,  T.-C. Jagau,  Yousung Jung,  A. Klamt,  
 Jing Kong,  D. S. Lambrecht,  Xiangyuan Li,  WanZhen Liang,  N. J. Mayhall,  
 C. W. McCurdy,  J. B. Neaton,  T. Neudecker,  C. Ochsenfeld,  
 J. A. Parkhill,  R. Peverati,  V. A. Rassolov,  Haisheng Ren,  Yihan Shao,  
 L. V. Slipchenko,  R. P. Steele,  J. E. Subotnik,  A. J. W. Thom,  
 A. Tkatchenko,  D. G. Truhlar,  T. Van Voorhis,  Fan Wang,  
 T. A. Wesolowski,  K. B. Whaley,  H. L. Woodcock III,  P. M. Zimmerman,  
 S. Faraji,  P. M. W. Gill,  M. Head-Gordon,  J. M. Herbert,  A. I. Krylov

 Contributors to earlier versions of Q-Chem not listed above: 
 R. D. Adamson,  B. Austin,  R. Baer,  J. Baker,  G. J. O. Beran,  
 K. Brandhorst,  S. T. Brown,  E. F. C. Byrd,  Arup K. Chakraborty,  
 G. K. L. Chan,  Chun-Min Chang,  Yunqing Chen,  C.-L. Cheng,  
 Siu Hung Chien,  D. M. Chipman,  D. L. Crittenden,  H. Dachsel,  
 R. J. Doerksen,  A. D. Dutoi,  R. G. Edgar,  J. Fosso-Tande,  
 L. Fusti-Molnar,  D. Ghosh,  A. Ghysels,  A. Golubeva-Zadorozhnaya,  
 J. Gonthier,  M. S. Gordon,  S. R. Gwaltney,  G. Hawkins,  J. E. Herr,  
 A. Heyden,  S. Hirata,  E. G. Hohenstein,  G. Kedziora,  F. J. Keil,  
 C. Kelley,  Jihan Kim,  R. A. King,  R. Z. Khaliullin,  P. P. Korambath,  
 W. Kurlancheek,  A. Laurent,  A. M. Lee,  M. S. Lee,  S. V. Levchenko,  
 Ching Yeh Lin,  D. Liotard,  E. Livshits,  R. C. Lochan,  I. Lotan,  
 L. A. Martinez-Martinez,  P. E. Maslen,  N. Nair,  D. P. O'Neill,  
 D. Neuhauser,  E. Neuscamman,  C. M. Oana,  R. Olivares-Amaya,  R. Olson,  
 T. M. Perrine,  B. Peters,  P. A. Pieniazek,  A. Prociuk,  Y. M. Rhee,  
 J. Ritchie,  M. A. Rohrdanz,  E. Rosta,  N. J. Russ,  H. F. Schaefer III,  
 M. W. Schmidt,  N. E. Schultz,  S. Sharma,  N. Shenvi,  C. D. Sherrill,  
 A. C. Simmonett,  A. Sodt,  T. Stein,  D. Stuck,  K. S. Thanthiriwatte,  
 V. Vanovschi,  L. Vogt,  Tao Wang,  A. Warshel,  M. A. Watson,  
 C. F. Williams,  Q. Wu,  X. Xu,  Jun Yang,  W. Zhang,  Yan Zhao

   Please cite Q-Chem as follows:
  "Software for the frontiers of quantum chemistry:
   An overview of developments in the Q-Chem 5 package"
   J. Chem. Phys. 155, 084801 (2021)
   https://doi.org/10.1063/5.0055522 (open access)

 Q-Chem 6.0.1 for Intel X86 EM64T Linux

 Parts of Q-Chem use Armadillo 9.900.5 (Nocturnal Misbehaviour).
 http://arma.sourceforge.net/

 Q-Chem begins on Sat Nov  4 08:44:01 2023  

 Host: atlas-085
0

     Scratch files written to ./qchem3416//
 Processing $rem in /scratch/abel/SOFTWARE/qchem/config/preferences:
 Processing $rem in /dipc/acebg/.qchemrc:

 Checking the input file for inconsistencies... 	...done.

--------------------------------------------------------------
User input:
--------------------------------------------------------------
$comment
 RAS-SF CALCULATION
$end

$molecule
 READ nf.molecule
$end

$rem
!**CALCULATION TYPE***     
JOBTYPE            sp    
EXCHANGE           HF
CORRELATION        RASCI    !RASCI=Casanova; RASCI2=Zimmerman
BASIS              def2-TZVP

!***SCF REFERENCE***
!SKIP_SCFMAN        FALSE
UNRESTRICTED       FALSE
!SCF_GUESS          core
!SCF_GUESS_MIX      FALSE
!SCF_GUESS_ALWAYS   FALSE
MAX_SCF_CYCLES     500
!SCF_CONVERGENCE    8
SCF_ALGORITHM      DIIS_GDM !DIIS,DM,DIIS_DM,GDM,DIIS_GDM,GD

!SYMMETRY           TRUE !use of symmetry for calculating integrals
!SYM_IGNORE         FALSE !turn off using symmetry
!SYM_TOL            5 !tolerance for determining point group

!THRESH             14
SCF_FINAL_PRINT     1 !0,1,2,3

!****RAS-SF****
RAS_ROOTS          30       !number of RAS-CI roots to be computed
SET_ITER           150      !number of iterations in RASCI
RAS_ELEC           12       !number of electrons in RAS2
RAS_ELEC_ALPHA     7       !spin-α electrons in RAS2 
RAS_ELEC_BETA      5       !spin-β electrons in RAS2

RAS_ACT            9       !number of orbitals in RAS2 
RAS_ACT_ORB   [3,4,5,6,7,8,9,10,11]  !user-selected RAS2 orbitals
RAS_OCC            2       !number of orbitals in RAS1
!N_FROZEN_CORE      0     !Number of frozen core orbitals
!N_FROZEN_VIRTUAL   0      !Number of frozen virtual orbitals

RAS_DO_HOLE        TRUE   !presence of hole excitations in RAS-CI wave function
RAS_DO_PART        TRUE   !presence of particle excitations
!RAS_AMPL_PRINT     10     !threshold (×10 2 ) for the CI amplitudes

!RAS_GUESS_CS       0      !number of closed shell guess conﬁgurations
!RAS_SPIN_MULT      0      !spin multiplicity: 0=any, 2n+1=defined 
!RAS_SRDFT          FALSE  !short-range density functional RAS-CI
!RAS_NFRAG          0     !fragments of excitation analysis in RASCI

RAS_PRINT          2      !level of information
RAS_NATORB         TRUE   !computation of the natural orbital occupancies
!RAS_NATORB_STATE  0      !Saves NO of i RAS computed state in .fchk ﬁle
!RAS_FOD            TRUE

!****RAS-SOC****
CALC_SOC           TRUE   !calculate SOC for EOM-CC, RAS-CI, ADC, TDDFT/TDA and TDDFT
!RAS_SOC_2E        TRUE   !two-electron mean-ﬁeld contribution, default=true
RAS_SOC_SYM_DENS   TRUE   !averaging of α and β densities

!****MEMORY****
MEM_TOTAL          80000 !Default 2000 MB
MEM_STATIC         20000  !Default 64 MB

!**Molecular Properties and Analysis **                                                                                          
!GUI                2
STATE_ANALYSIS     TRUE
MOLDEN_FORMAT      TRUE
PRINT_ORBITALS     20
$end                                           

--------------------------------------------------------------
 ----------------------------------------------------------------
             Standard Nuclear Orientation (Angstroms)
    I     Atom           X                Y                Z
 ----------------------------------------------------------------
    1      N       0.0000000000     0.0000000000    -0.7407562500
    2      F       0.0000000000     0.0000000000     0.5761437500
 ----------------------------------------------------------------
 Molecular Point Group                 C2v   NOp =  4
 Largest Abelian Subgroup              C2v   NOp =  4
 Nuclear Repulsion Energy =          25.31563845 hartrees
 There are        9 alpha and        7 beta electrons
 Requested basis set is def2-TZVP
 There are 22 shells and 62 basis functions

 Q-Chem warning in module libmdc/get_mega.C, line 167:

 Allowed MEM_STATIC has been capped at MEM_STATIC=8191.
 Reduce the value of MEM_STATIC to silence this warning.


 Total QAlloc Memory Limit  80000 MB
 Mega-Array Size      8007 MB
 MEM_STATIC part      8191 MB


                       Distance Matrix (Angstroms)
             N (  1)
   F (  2)  1.316900
 
 A cutoff of  1.0D-09 yielded    251 shell pairs
 There are      2051 function pairs (      2794 Cartesian)
 Smallest overlap matrix eigenvalue = 6.25E-03

 Scale SEOQF with 1.000000e+00/1.000000e+00/1.000000e+00

 Standard Electronic Orientation quadrupole field applied
 Nucleus-field energy     =    -0.0000000073 hartrees
 Guess from superposition of atomic densities
 Warning:  Energy on first SCF cycle will be non-variational
 SAD guess density has 16.000000 electrons

 -----------------------------------------------------------------------
  General SCF calculation program by
  Eric Jon Sundstrom, Paul Horn, Yuezhi Mao, Dmitri Zuev, Alec White,
  David Stuck, Shaama M.S., Shane Yost, Joonho Lee, David Small,
  Daniel Levine, Susi Lehtola, Hugh Burton, Evgeny Epifanovsky,
  Bang C. Huynh
 -----------------------------------------------------------------------
 Hartree-Fock
 Orthonormalizing orbitals
 A restricted open-shell SCF calculation will be
 performed using DIIS, GDM
 SCF converges when RMS gradient is below 1.0e-05
 ---------------------------------------
  Cycle       Energy         DIIS error
 ---------------------------------------
    1    -152.2989782821      1.20e-01  
    2    -153.3959507189      9.41e-02  
    3    -153.7459657049      3.92e-02  
    4    -153.7991884799      2.59e-02  
    5    -153.8337233238      4.43e-03  Done DIIS. Switching to GDM
 ---------------------------------------
  Cycle       Energy        RMS Gradient
 ---------------------------------------
    1    -153.8337233238      2.76e-02   Normal BFGS step
    2    -153.8344917348      1.77e-02   Normal BFGS step
    3    -153.8352794524      1.46e-03   Normal BFGS step
    4    -153.8352888679      6.22e-04   Normal BFGS step
    5    -153.8352897564      1.18e-04   Normal BFGS step
    6    -153.8352897883      3.84e-05   Normal BFGS step
    7    -153.8352897941      2.09e-05   Normal BFGS step
    8    -153.8352897936      5.39e-06  Convergence criterion met
The disked orbital energies are calculated using alpha and beta Focks
 ---------------------------------------
 Alpha HF Exchange    Energy =  -8.91767235230565
 Beta HF Exchange     Energy =  -7.69482782485116
 Nuclear Attraction   Energy =   0.00000000000000
 One-Electron (alpha) Energy = -140.03064971874900
 One-Electron (beta)  Energy = -123.26169476729717
 Total Coulomb        Energy = 100.75391642266149
 Final Alpha MO Eigenvalues
            1           2           3           4           5           6
    1 -26.3698557 -15.7403520  -1.7109304  -1.1149877  -0.7629573  -0.7629571
            7           8           9          10          11          12
    1  -0.7308490  -0.5565392  -0.5565393   0.2479430   0.3439436   0.4360638
           13          14          15          16          17          18
    1   0.4360638   0.5278490   0.6740893   0.7452320   0.7452321   1.0814936
           19          20          21          22          23          24
    1   1.1470593   1.1470593   1.2920064   1.2920064   1.6486346   2.1237990
           25          26          27          28          29          30
    1   2.2374477   2.2374477   2.2079796   2.2079797   2.6723607   2.6723607
           31          32          33          34          35          36
    1   2.6920719   2.9081235   3.5536708   3.5536709   3.9980318   4.1409864
           37          38          39          40          41          42
    1   4.1409864   4.1637199   4.1802602   4.1802602   4.5940376   4.5940376
           43          44          45          46          47          48
    1   4.7170670   4.7170670   5.0157511   5.0157511   5.1482934   6.2962399
           49          50          51          52          53          54
    1   7.3390285   7.3390285   7.4166138   7.4166138   7.8199792   7.8199792
           55          56          57          58          59          60
    1   8.2097712   8.8345567   8.8345567   9.2796457   9.2796457   9.8328768
           61          62
    1  32.4184961  58.7005768
 Final Beta MO Eigenvalues
            1           2           3           4           5           6
    1 -26.3629882 -15.6799983  -1.6754670  -0.9458281  -0.7079579  -0.7079575
            7           8           9          10          11          12
    1  -0.6233474   0.1769605   0.1769605   0.2873073   0.3767596   0.4970327
           13          14          15          16          17          18
    1   0.4970326   0.5655594   0.6834629   0.7568546   0.7568548   1.0867848
           19          20          21          22          23          24
    1   1.2695529   1.2695529   1.3609691   1.3609691   1.6963597   2.1898574
           25          26          27          28          29          30
    1   2.2551784   2.2551784   2.3377629   2.3377630   2.7068257   2.7068257
           31          32          33          34          35          36
    1   2.7292353   2.9211329   3.5753330   3.5753331   4.0090886   4.2409384
           37          38          39          40          41          42
    1   4.2409384   4.1999384   4.2476807   4.2476807   4.6551388   4.6551388
           43          44          45          46          47          48
    1   4.8801902   4.8801902   5.0843728   5.0843729   5.1987703   6.3143219
           49          50          51          52          53          54
    1   7.3479137   7.3479137   7.4241268   7.4241268   7.8295729   7.8295729
           55          56          57          58          59          60
    1   8.2229673   8.8513738   8.8513738   9.2898806   9.2898806   9.8404719
           61          62
    1  32.4539150  58.7043122
 SCF time:   CPU 2.34s  wall 4.00s 
<S^2> =          2.000000000
 SCF   energy in the final basis set =     -153.8352897936
 Total energy in the final basis set =     -153.8352897936
  
     ##========================================##
     ||                                        ||
     ||              R A S M A N 2             ||
     ||________________________________________||
     ||                                        ||
     ||  Author:                               ||
     ||                                        ||
     ||        David Casanova (2010)           ||
     ||                                        ||
     ##========================================##
  
Setting single-point xc-functionals (if necessary)

  ***************************************************
  *  RAS-CI Dimensions:                             *
  *                                                 *
  *  Active Elec.:  12 ( 7, 5)   Active Orb.:   9   *
  *  Doubly Occ. :   2           Doubly Vir.:  51   *
  *  Frozen Occ. :   0           Frozen Vir.:   0   *
  *                                                 *
  *  Total CI configurations:    783972             * 
  *    Active configurations:      4536             * 
  *      Hole configurations:      8316             * 
  *  Particle configurations:    771120             * 
  *                                                 *
  *   Requested states:       30                    *
  *  Spin multiplicity: Any multiplicity            *
  *                                                 *
  ***************************************************
-----------------------------------------
    Memory requirements of RASCI

 Each CI-vector requires      5.98 MiB 
 Max. subspace vectors           4500      

 Reduced Lists                0.00 MiB 
 Excitation Lists             0.01 MiB 
 Excitation Lists Sign        0.01 MiB 
 CI-space (Max)           27249.51 MiB 
 Integrals                    5.51 MiB 
 Memory required (Max)    27249.53 MiB 
 Memory available          7811.55 MiB 

 Q-Chem warning in module rasman2/ras_mem_check.C, line 162:

 Static memory may be insufficient to store the subspace vectors


    Disk requirements of RASCI

 Fock matrix                  0.06 MiB 
 2-electron integrals         7.26 MiB 
 CI-space                 53831.09 MiB 
 Disk required            53838.40 MiB 
-----------------------------------------
  
RAS1 HF-like energy:           -106.1493984925
 Computing integrals
 Computing J and K matrices
 Computing addressing
 Making amplitude guesses
 
Direct CI diagonalization
 ---------------------------------------------------
 Iter    Rts Conv    Rts Left    Ttl Dev     Max Dev
 ---------------------------------------------------
   1         0          30      0.026766    0.001770
   2         0          30      0.015554    0.000938
   3         0          30      0.018782    0.001149
   4         0          30      0.011573    0.000592
   5         0          30      0.010151    0.000568
   6         0          30      0.007340    0.000399
   7         0          30      0.007595    0.001161
   8         0          30      0.007552    0.001118
   9         0          30      0.006562    0.000981
  10         0          30      0.005382    0.000677
  11         0          30      0.004190    0.000523
  12         0          30      0.004334    0.000708
  13         0          30      0.004211    0.000659
  14         0          30      0.004437    0.000872
  15         0          30      0.004043    0.000672
  16         0          30      0.003179    0.000355
  17         0          30      0.002873    0.000334
  18         0          30      0.002679    0.000299
  19         0          30      0.002379    0.000290
  20         1          29      0.002341    0.000275
  21         1          29      0.002136    0.000268
  22         1          29      0.002992    0.000400
  23         1          29      0.003080    0.000367
  24         4          26      0.003433    0.000575
  25         4          26      0.002880    0.000410
  26         4          26      0.003064    0.000462
  27         6          24      0.003081    0.000412
  28         6          24      0.003081    0.000415
  29         7          23      0.002658    0.000428
  30         7          23      0.001976    0.000341
  31         7          23      0.001747    0.000280
  32        11          19      0.001396    0.000206
  33        13          17      0.001168    0.000199
  34        12          18      0.000902    0.000144
  35        14          16      0.000759    0.000108
  36        16          14      0.000633    0.000090
  37        16          14      0.000548    0.000079
  38        16          14      0.000473    0.000062
  39        17          13      0.000415    0.000057
  40        16          14      0.000381    0.000052
  41        18          12      0.000338    0.000047
  42        17          13      0.000319    0.000042
  43        18          12      0.000279    0.000040
  44        19          11      0.000255    0.000037
  45        19          11      0.000219    0.000038
  46        20          10      0.000193    0.000035
  47        19          11      0.000165    0.000032
  48        20          10      0.000139    0.000028
  49        20          10      0.000113    0.000021
  50        21           9      0.000097    0.000020
  51        21           9      0.000080    0.000015
  52        24           6      0.000068    0.000013
  53        24           6      0.000058    0.000010
  54        24           6      0.000047    0.000008
  55        26           4      0.000040    0.000007
  56        27           3      0.000034    0.000005
  57        27           3      0.000031    0.000005
  58        26           4      0.000027    0.000004
  59        27           3      0.000024    0.000003
  60        27           3      0.000022    0.000002
  61        27           3      0.000021    0.000002
  62        29           1      0.000019    0.000002
  63        29           1      0.000019    0.000001
  64        30           0      0.000019    0.000001    Roots Converged
 ---------------------------------------------------
   
**************************************************
 RAS-CI total energy for state   1:   -153.971373752526
  Excitation energy (eV) =  0.000000000000
  State symmetry: A2    (C2v      )
  <S^2>      :  2.0000
  Dipole Moment:    0.0000 X     0.0000 Y    -0.1777 Z
 NATURAL OCCUPATION NUMBERS (higher than 1.0E-05)
            1           2           3           4           5           6
    1   1.9999998   1.9999980   1.9956976   1.9825600   1.9825600   1.9756075
            7           8           9          10          11          12
    1   1.9623605   1.0097857   1.0097857   0.0374164   0.0097623   0.0051532
           13          14          15          16          17          18
    1   0.0048137   0.0048137   0.0032070   0.0032070   0.0020465   0.0020465
           19          20          21          22          23          24
    1   0.0018717   0.0012517   0.0012517   0.0008080   0.0006901   0.0004404
           25          26          27          28          29          30
    1   0.0004404   0.0004032   0.0004032   0.0003843   0.0003133   0.0001010
           31          32          33          34          35          36
    1   0.0001010   0.0000787   0.0000596   0.0000596   0.0000513   0.0000513
           37          38          39          40          41          42
    1   0.0000320   0.0000274   0.0000274   0.0000258   0.0000258   0.0000253
           43          44          45          46          47          48
    1   0.0000240   0.0000240   0.0000226   0.0000226   0.0000217   0.0000217
           49          50          51          52          53
    1   0.0000191   0.0000191   0.0000174   0.0000165   0.0000165
 Created directory ./qchem3416/plots

  Amplitudes : 
  
 | HOLE  | ALPHA     | BETA      | PART  |    AMPLITUDE 
--------------------------------------------------
 |       | 111111100 | 111110000 |       |     9.5716196241108E-01
 |       | 111111100 | 111010100 |       |     1.0352848960053E-01
 |       | 111111100 | 110111000 |       |     1.0352919433498E-01
--------------------------------------------------
*** Contributions RASCI wfn    Active:  95.59
                                 Hole:   0.00
                                 Part:   4.40

      Mulliken population analysis 
 ---------------------------------------------------
   Atom    Charge (a.u.)   Spin (a.u.)  
 ---------------------------------------------------
   1  N   -0.019048        1.814573 
   2  F    0.019048        0.185427 
 ---------------------------------------------------
   Sum:   -0.000000        2.000000 
 ---------------------------------------------------
 
  
 NATURAL OCCUPATION NUMBERS (higher than 1.0E-05)
            1           2           3           4           5           6
    1   1.9999998   1.9999980   1.9956976   1.9825600   1.9825600   1.9756075
            7           8           9          10          11          12
    1   1.9623605   1.0097857   1.0097857   0.0374164   0.0097623   0.0051532
           13          14          15          16          17          18
    1   0.0048137   0.0048137   0.0032070   0.0032070   0.0020465   0.0020465
           19          20          21          22          23          24
    1   0.0018717   0.0012517   0.0012517   0.0008080   0.0006901   0.0004404
           25          26          27          28          29          30
    1   0.0004404   0.0004032   0.0004032   0.0003843   0.0003133   0.0001010
           31          32          33          34          35          36
    1   0.0001010   0.0000787   0.0000596   0.0000596   0.0000513   0.0000513
           37          38          39          40          41          42
    1   0.0000320   0.0000274   0.0000274   0.0000258   0.0000258   0.0000253
           43          44          45          46          47          48
    1   0.0000240   0.0000240   0.0000226   0.0000226   0.0000217   0.0000217
           49          50          51          52          53
    1   0.0000191   0.0000191   0.0000174   0.0000165   0.0000165
  
*** Unpaired Electrons
 Yamaguchi Nd:         2.36
 Head-Gordon Nu:       2.16
 Head-Gordon Nu_nl:    2.02
  
**************************************************
 RAS-CI total energy for state   2:   -153.703689438278
  Excitation energy (eV) =  7.284060792118
  State symmetry: B2    (C2v      )
  <S^2>      :  2.0000
  Dipole Moment:    0.0000 X    -0.0000 Y    -0.2291 Z
  Trans. Moment:   -0.3327 X     0.0154 Y     0.0000 Z
  Strength   :  0.019796
  Natural transition orbitals ( 1 -> 2 ):
   e-/hole pair  1 alpha:  ampl =  0.328847 ( 10.8%)   [9 : 10]
   e-/hole pair  2 alpha:  ampl =  0.035082 (  0.1%)   [8 : 11]
   e-/hole pair  1 beta :  ampl =  0.898814 ( 80.8%)   [9 : 10]
   e-/hole pair  2 beta :  ampl =  0.043856 (  0.2%)   [8 : 11]
   Sum of square amplitudes: 0.92

 NATURAL OCCUPATION NUMBERS (higher than 1.0E-05)
            1           2           3           4           5           6
    1   1.9999998   1.9999975   1.9937578   1.9881775   1.9840371   1.9613894
            7           8           9          10          11          12
    1   1.7535074   1.1234136   1.0065381   0.1468574   0.0075005   0.0063154
           13          14          15          16          17          18
    1   0.0049302   0.0045875   0.0032095   0.0028086   0.0023985   0.0018123
           19          20          21          22          23          24
    1   0.0013428   0.0012242   0.0012065   0.0008972   0.0006635   0.0006551
           25          26          27          28          29          30
    1   0.0004805   0.0003165   0.0003132   0.0003032   0.0002448   0.0001720
           31          32          33          34          35          36
    1   0.0000933   0.0000815   0.0000697   0.0000668   0.0000636   0.0000610
           37          38          39          40          41          42
    1   0.0000499   0.0000450   0.0000436   0.0000357   0.0000334   0.0000329
           43          44          45          46          47          48
    1   0.0000309   0.0000291   0.0000290   0.0000284   0.0000280   0.0000216
           49          50          51          52          53
    1   0.0000167   0.0000158   0.0000112   0.0000109   0.0000102

  Amplitudes : 
  
 | HOLE  | ALPHA     | BETA      | PART  |    AMPLITUDE 
--------------------------------------------------
 |       | 111111100 | 111101000 |       |     8.9612447183257E-01
 |       | 111110110 | 111110000 |       |    -2.7679337439123E-01
--------------------------------------------------
*** Contributions RASCI wfn    Active:  93.23
                                 Hole:   0.00
                                 Part:   6.77

      Mulliken population analysis 
 ---------------------------------------------------
   Atom    Charge (a.u.)   Spin (a.u.)  
 ---------------------------------------------------
   1  N   -0.120920        1.601194 
   2  F    0.120920        0.398806 
 ---------------------------------------------------
   Sum:   -0.000000        2.000000 
 ---------------------------------------------------
 
  
 NATURAL OCCUPATION NUMBERS (higher than 1.0E-05)
            1           2           3           4           5           6
    1   1.9999998   1.9999975   1.9937578   1.9881775   1.9840371   1.9613894
            7           8           9          10          11          12
    1   1.7535074   1.1234136   1.0065381   0.1468574   0.0075005   0.0063154
           13          14          15          16          17          18
    1   0.0049302   0.0045875   0.0032095   0.0028086   0.0023985   0.0018123
           19          20          21          22          23          24
    1   0.0013428   0.0012242   0.0012065   0.0008972   0.0006635   0.0006551
           25          26          27          28          29          30
    1   0.0004805   0.0003165   0.0003132   0.0003032   0.0002448   0.0001720
           31          32          33          34          35          36
    1   0.0000933   0.0000815   0.0000697   0.0000668   0.0000636   0.0000610
           37          38          39          40          41          42
    1   0.0000499   0.0000450   0.0000436   0.0000357   0.0000334   0.0000329
           43          44          45          46          47          48
    1   0.0000309   0.0000291   0.0000290   0.0000284   0.0000280   0.0000216
           49          50          51          52          53
    1   0.0000167   0.0000158   0.0000112   0.0000109   0.0000102
  
*** Unpaired Electrons
 Yamaguchi Nd:         2.92
 Head-Gordon Nu:       2.38
 Head-Gordon Nu_nl:    2.24
  
**************************************************
 RAS-CI total energy for state   3:   -153.703689431541
  Excitation energy (eV) =  7.284060975457
  State symmetry: B1    (C2v      )
  <S^2>      :  2.0000
  Dipole Moment:   -0.0000 X     0.0000 Y    -0.2291 Z
  Trans. Moment:    0.0154 X     0.3327 Y    -0.0000 Z
  Strength   :  0.019796
  Natural transition orbitals ( 1 -> 3 ):
   e-/hole pair  1 alpha:  ampl =  0.328848 ( 10.8%)   [9 : 10]
   e-/hole pair  2 alpha:  ampl =  0.035082 (  0.1%)   [8 : 11]
   e-/hole pair  1 beta :  ampl =  0.898814 ( 80.8%)   [9 : 10]
   e-/hole pair  2 beta :  ampl =  0.043856 (  0.2%)   [8 : 11]
   Sum of square amplitudes: 0.92

 NATURAL OCCUPATION NUMBERS (higher than 1.0E-05)
            1           2           3           4           5           6
    1   1.9999998   1.9999975   1.9937578   1.9881774   1.9840371   1.9613892
            7           8           9          10          11          12
    1   1.7535071   1.1234135   1.0065383   0.1468584   0.0075004   0.0063153
           13          14          15          16          17          18
    1   0.0049301   0.0045874   0.0032095   0.0028085   0.0023985   0.0018123
           19          20          21          22          23          24
    1   0.0013428   0.0012242   0.0012065   0.0008972   0.0006635   0.0006551
           25          26          27          28          29          30
    1   0.0004805   0.0003165   0.0003132   0.0003032   0.0002448   0.0001720
           31          32          33          34          35          36
    1   0.0000933   0.0000815   0.0000697   0.0000668   0.0000636   0.0000610
           37          38          39          40          41          42
    1   0.0000499   0.0000450   0.0000436   0.0000357   0.0000334   0.0000329
           43          44          45          46          47          48
    1   0.0000309   0.0000291   0.0000290   0.0000284   0.0000280   0.0000216
           49          50          51          52          53
    1   0.0000167   0.0000158   0.0000112   0.0000109   0.0000102

  Amplitudes : 
  
 | HOLE  | ALPHA     | BETA      | PART  |    AMPLITUDE 
--------------------------------------------------
 |       | 111111100 | 111100100 |       |     8.9612427435893E-01
 |       | 111111010 | 111110000 |       |     2.7679373323845E-01
--------------------------------------------------
*** Contributions RASCI wfn    Active:  93.23
                                 Hole:   0.00
                                 Part:   6.77

      Mulliken population analysis 
 ---------------------------------------------------
   Atom    Charge (a.u.)   Spin (a.u.)  
 ---------------------------------------------------
   1  N   -0.120919        1.601193 
   2  F    0.120919        0.398807 
 ---------------------------------------------------
   Sum:   -0.000000        2.000000 
 ---------------------------------------------------
 
  
 NATURAL OCCUPATION NUMBERS (higher than 1.0E-05)
            1           2           3           4           5           6
    1   1.9999998   1.9999975   1.9937578   1.9881774   1.9840371   1.9613892
            7           8           9          10          11          12
    1   1.7535071   1.1234135   1.0065383   0.1468584   0.0075004   0.0063153
           13          14          15          16          17          18
    1   0.0049301   0.0045874   0.0032095   0.0028085   0.0023985   0.0018123
           19          20          21          22          23          24
    1   0.0013428   0.0012242   0.0012065   0.0008972   0.0006635   0.0006551
           25          26          27          28          29          30
    1   0.0004805   0.0003165   0.0003132   0.0003032   0.0002448   0.0001720
           31          32          33          34          35          36
    1   0.0000933   0.0000815   0.0000697   0.0000668   0.0000636   0.0000610
           37          38          39          40          41          42
    1   0.0000499   0.0000450   0.0000436   0.0000357   0.0000334   0.0000329
           43          44          45          46          47          48
    1   0.0000309   0.0000291   0.0000290   0.0000284   0.0000280   0.0000216
           49          50          51          52          53
    1   0.0000167   0.0000158   0.0000112   0.0000109   0.0000102
  
*** Unpaired Electrons
 Yamaguchi Nd:         2.92
 Head-Gordon Nu:       2.38
 Head-Gordon Nu_nl:    2.24
  
**************************************************
 RAS-CI total energy for state   4:   -153.686396981987
  Excitation energy (eV) =  7.754612468728
  Warning: not all configurations have same symmetry
  State symmetry: *B1    (C2v      )
  <S^2>      :  2.0000
  Dipole Moment:   -0.0000 X     0.0000 Y    -0.3210 Z
  Trans. Moment:    0.0390 X    -0.1239 Y     0.0000 Z
  Strength   :  0.003204
  Natural transition orbitals ( 1 -> 4 ):
   e-/hole pair  1 alpha:  ampl =  0.886900 ( 78.7%)   [9 : 10]
   e-/hole pair  2 alpha:  ampl =  0.035154 (  0.1%)   [8 : 11]
   e-/hole pair  1 beta :  ampl =  0.335195 ( 11.2%)   [9 : 10]
   e-/hole pair  2 beta :  ampl =  0.027895 (  0.1%)   [8 : 11]
   Sum of square amplitudes: 0.90

 NATURAL OCCUPATION NUMBERS (higher than 1.0E-05)
            1           2           3           4           5           6
    1   1.9999998   1.9999972   1.9944356   1.9767196   1.9730951   1.9269798
            7           8           9          10          11          12
    1   1.8447672   1.0148484   0.8835887   0.3333458   0.0121684   0.0090630
           13          14          15          16          17          18
    1   0.0057701   0.0047938   0.0029831   0.0025954   0.0022772   0.0019715
           19          20          21          22          23          24
    1   0.0019451   0.0015797   0.0011613   0.0010668   0.0008414   0.0006462
           25          26          27          28          29          30
    1   0.0005539   0.0005167   0.0004313   0.0003961   0.0003350   0.0001021
           31          32          33          34          35          36
    1   0.0000875   0.0000800   0.0000770   0.0000732   0.0000722   0.0000683
           37          38          39          40          41          42
    1   0.0000555   0.0000460   0.0000442   0.0000395   0.0000353   0.0000344
           43          44          45          46          47          48
    1   0.0000341   0.0000321   0.0000291   0.0000275   0.0000269   0.0000235
           49          50          51          52          53          54
    1   0.0000208   0.0000205   0.0000183   0.0000181   0.0000163   0.0000160

  Amplitudes : 
  
 | HOLE  | ALPHA     | BETA      | PART  |    AMPLITUDE 
--------------------------------------------------
 |       | 111111100 | 111100100 |       |    -3.1671389446870E-01
 |       | 111111010 | 111110000 |       |     7.2847973130281E-01
 |       | 111111010 | 111010100 |       |     1.8101810969229E-01
 |       | 111111010 | 110111000 |       |     1.2107677544737E-01
 |       | 111110110 | 111110000 |       |    -2.2939266483124E-01
 |       | 111011110 | 111110000 |       |    -2.4182118404213E-01
 |       | 111111000 | 111110000 |  14   |     2.7088449947949E-01
--------------------------------------------------
*** Contributions RASCI wfn    Active:  84.86
                                 Hole:   0.00
                                 Part:  15.14

      Mulliken population analysis 
 ---------------------------------------------------
   Atom    Charge (a.u.)   Spin (a.u.)  
 ---------------------------------------------------
   1  N   -0.267248        1.786005 
   2  F    0.267248        0.213995 
 ---------------------------------------------------
   Sum:   -0.000000        2.000000 
 ---------------------------------------------------
 
  
 NATURAL OCCUPATION NUMBERS (higher than 1.0E-05)
            1           2           3           4           5           6
    1   1.9999998   1.9999972   1.9944356   1.9767196   1.9730951   1.9269798
            7           8           9          10          11          12
    1   1.8447672   1.0148484   0.8835887   0.3333458   0.0121684   0.0090630
           13          14          15          16          17          18
    1   0.0057701   0.0047938   0.0029831   0.0025954   0.0022772   0.0019715
           19          20          21          22          23          24
    1   0.0019451   0.0015797   0.0011613   0.0010668   0.0008414   0.0006462
           25          26          27          28          29          30
    1   0.0005539   0.0005167   0.0004313   0.0003961   0.0003350   0.0001021
           31          32          33          34          35          36
    1   0.0000875   0.0000800   0.0000770   0.0000732   0.0000722   0.0000683
           37          38          39          40          41          42
    1   0.0000555   0.0000460   0.0000442   0.0000395   0.0000353   0.0000344
           43          44          45          46          47          48
    1   0.0000341   0.0000321   0.0000291   0.0000275   0.0000269   0.0000235
           49          50          51          52          53          54
    1   0.0000208   0.0000205   0.0000183   0.0000181   0.0000163   0.0000160
  
*** Unpaired Electrons
 Yamaguchi Nd:         3.18
 Head-Gordon Nu:       2.54
 Head-Gordon Nu_nl:    2.39
  
**************************************************
 RAS-CI total energy for state   5:   -153.686396971258
  Excitation energy (eV) =  7.754612760659
  Warning: not all configurations have same symmetry
  State symmetry: *B2    (C2v      )
  <S^2>      :  2.0000
  Dipole Moment:    0.0000 X    -0.0000 Y    -0.3210 Z
  Trans. Moment:   -0.1239 X    -0.0390 Y     0.0000 Z
  Strength   :  0.003204
  Natural transition orbitals ( 1 -> 5 ):
   e-/hole pair  1 alpha:  ampl =  0.886900 ( 78.7%)   [9 : 10]
   e-/hole pair  2 alpha:  ampl =  0.035154 (  0.1%)   [8 : 11]
   e-/hole pair  1 beta :  ampl =  0.335195 ( 11.2%)   [9 : 10]
   e-/hole pair  2 beta :  ampl =  0.027895 (  0.1%)   [8 : 11]
   Sum of square amplitudes: 0.90

 NATURAL OCCUPATION NUMBERS (higher than 1.0E-05)
            1           2           3           4           5           6
    1   1.9999998   1.9999972   1.9944356   1.9767199   1.9730950   1.9269803
            7           8           9          10          11          12
    1   1.8447667   1.0148481   0.8835902   0.3333446   0.0121685   0.0090629
           13          14          15          16          17          18
    1   0.0057700   0.0047938   0.0029830   0.0025954   0.0022772   0.0019715
           19          20          21          22          23          24
    1   0.0019451   0.0015796   0.0011613   0.0010669   0.0008414   0.0006462
           25          26          27          28          29          30
    1   0.0005539   0.0005167   0.0004313   0.0003961   0.0003350   0.0001021
           31          32          33          34          35          36
    1   0.0000875   0.0000800   0.0000770   0.0000732   0.0000722   0.0000683
           37          38          39          40          41          42
    1   0.0000555   0.0000460   0.0000442   0.0000395   0.0000353   0.0000344
           43          44          45          46          47          48
    1   0.0000341   0.0000321   0.0000291   0.0000275   0.0000269   0.0000235
           49          50          51          52          53          54
    1   0.0000208   0.0000205   0.0000183   0.0000181   0.0000163   0.0000160

  Amplitudes : 
  
 | HOLE  | ALPHA     | BETA      | PART  |    AMPLITUDE 
--------------------------------------------------
 |       | 111111100 | 111101000 |       |     3.1671353967464E-01
 |       | 111111010 | 111110000 |       |     2.2939293081466E-01
 |       | 111110110 | 111110000 |       |     7.2847968683411E-01
 |       | 111110110 | 111010100 |       |     1.2107550863797E-01
 |       | 111110110 | 110111000 |       |     1.8101798979458E-01
 |       | 110111110 | 111110000 |       |     2.4182171459490E-01
 |       | 111110100 | 111110000 |  14   |     2.7088461864231E-01
--------------------------------------------------
*** Contributions RASCI wfn    Active:  84.86
                                 Hole:   0.00
                                 Part:  15.14

      Mulliken population analysis 
 ---------------------------------------------------
   Atom    Charge (a.u.)   Spin (a.u.)  
 ---------------------------------------------------
   1  N   -0.267249        1.786003 
   2  F    0.267249        0.213997 
 ---------------------------------------------------
   Sum:   -0.000000        2.000000 
 ---------------------------------------------------
 
  
 NATURAL OCCUPATION NUMBERS (higher than 1.0E-05)
            1           2           3           4           5           6
    1   1.9999998   1.9999972   1.9944356   1.9767199   1.9730950   1.9269803
            7           8           9          10          11          12
    1   1.8447667   1.0148481   0.8835902   0.3333446   0.0121685   0.0090629
           13          14          15          16          17          18
    1   0.0057700   0.0047938   0.0029830   0.0025954   0.0022772   0.0019715
           19          20          21          22          23          24
    1   0.0019451   0.0015796   0.0011613   0.0010669   0.0008414   0.0006462
           25          26          27          28          29          30
    1   0.0005539   0.0005167   0.0004313   0.0003961   0.0003350   0.0001021
           31          32          33          34          35          36
    1   0.0000875   0.0000800   0.0000770   0.0000732   0.0000722   0.0000683
           37          38          39          40          41          42
    1   0.0000555   0.0000460   0.0000442   0.0000395   0.0000353   0.0000344
           43          44          45          46          47          48
    1   0.0000341   0.0000321   0.0000291   0.0000275   0.0000269   0.0000235
           49          50          51          52          53          54
    1   0.0000208   0.0000205   0.0000183   0.0000181   0.0000163   0.0000160
  
*** Unpaired Electrons
 Yamaguchi Nd:         3.18
 Head-Gordon Nu:       2.54
 Head-Gordon Nu_nl:    2.39
  
**************************************************
 RAS-CI total energy for state   6:   -153.660668940054
  Excitation energy (eV) =  8.454708109461
  State symmetry: A1    (C2v      )
  <S^2>      :  2.0000
  Dipole Moment:   -0.0000 X     0.0000 Y    -1.3027 Z
  Trans. Moment:    0.0000 X     0.0000 Y    -0.0000 Z
  Strength   :  0.000000
  Natural transition orbitals ( 1 -> 6 ):
   e-/hole pair  1 alpha:  ampl =  0.014682 (  0.0%)   [9 : 10]
   e-/hole pair  2 alpha:  ampl =  0.014682 (  0.0%)   [8 : 11]
   e-/hole pair  1 beta :  ampl =  0.658825 ( 43.4%)   [9 : 10]
   e-/hole pair  2 beta :  ampl =  0.658820 ( 43.4%)   [8 : 11]
   Sum of square amplitudes: 0.87

 NATURAL OCCUPATION NUMBERS (higher than 1.0E-05)
            1           2           3           4           5           6
    1   1.9999998   1.9999990   1.9938706   1.9875658   1.9704278   1.4996676
            7           8           9          10          11          12
    1   1.4996597   1.4893727   1.4893648   0.0277453   0.0094525   0.0049414
           13          14          15          16          17          18
    1   0.0049414   0.0030952   0.0026080   0.0024516   0.0023314   0.0023314
           19          20          21          22          23          24
    1   0.0013229   0.0012815   0.0012658   0.0010671   0.0010671   0.0006831
           25          26          27          28          29          30
    1   0.0004975   0.0004975   0.0004113   0.0002956   0.0002093   0.0001470
           31          32          33          34          35          36
    1   0.0001470   0.0001284   0.0001284   0.0000895   0.0000849   0.0000849
           37          38          39          40          41          42
    1   0.0000789   0.0000789   0.0000747   0.0000639   0.0000571   0.0000468
           43          44          45          46          47          48
    1   0.0000468   0.0000464   0.0000439   0.0000431   0.0000348   0.0000229
           49          50          51          52          53
    1   0.0000229   0.0000223   0.0000170   0.0000170   0.0000145

  Amplitudes : 
  
 | HOLE  | ALPHA     | BETA      | PART  |    AMPLITUDE 
--------------------------------------------------
 |       | 111111100 | 111011000 |       |     6.5161511218363E-01
 |       | 111111100 | 110110100 |       |     6.5162025497658E-01
--------------------------------------------------
*** Contributions RASCI wfn    Active:  89.26
                                 Hole:   0.00
                                 Part:  10.74

      Mulliken population analysis 
 ---------------------------------------------------
   Atom    Charge (a.u.)   Spin (a.u.)  
 ---------------------------------------------------
   1  N   -0.528842        0.994171 
   2  F    0.528842        1.005829 
 ---------------------------------------------------
   Sum:   -0.000000        2.000000 
 ---------------------------------------------------
 
  
 NATURAL OCCUPATION NUMBERS (higher than 1.0E-05)
            1           2           3           4           5           6
    1   1.9999998   1.9999990   1.9938706   1.9875658   1.9704278   1.4996676
            7           8           9          10          11          12
    1   1.4996597   1.4893727   1.4893648   0.0277453   0.0094525   0.0049414
           13          14          15          16          17          18
    1   0.0049414   0.0030952   0.0026080   0.0024516   0.0023314   0.0023314
           19          20          21          22          23          24
    1   0.0013229   0.0012815   0.0012658   0.0010671   0.0010671   0.0006831
           25          26          27          28          29          30
    1   0.0004975   0.0004975   0.0004113   0.0002956   0.0002093   0.0001470
           31          32          33          34          35          36
    1   0.0001470   0.0001284   0.0001284   0.0000895   0.0000849   0.0000849
           37          38          39          40          41          42
    1   0.0000789   0.0000789   0.0000747   0.0000639   0.0000571   0.0000468
           43          44          45          46          47          48
    1   0.0000468   0.0000464   0.0000439   0.0000431   0.0000348   0.0000229
           49          50          51          52          53
    1   0.0000229   0.0000223   0.0000170   0.0000170   0.0000145
  
*** Unpaired Electrons
 Yamaguchi Nd:         3.26
 Head-Gordon Nu:       2.14
 Head-Gordon Nu_nl:    2.29
  
**************************************************
 RAS-CI total energy for state   7:   -153.660668929406
  Excitation energy (eV) =  8.454708399215
  State symmetry: A2    (C2v      )
  <S^2>      :  2.0000
  Dipole Moment:   -0.0000 X     0.0000 Y    -1.3027 Z
  Trans. Moment:    0.0000 X     0.0000 Y    -0.0000 Z
  Strength   :  0.000000
  Natural transition orbitals ( 1 -> 7 ):
   e-/hole pair  1 alpha:  ampl =  0.014685 (  0.0%)   [9 : 10]
   e-/hole pair  2 alpha:  ampl =  0.014685 (  0.0%)   [8 : 11]
   e-/hole pair  1 beta :  ampl =  0.658823 ( 43.4%)   [9 : 10]
   e-/hole pair  2 beta :  ampl =  0.658822 ( 43.4%)   [8 : 11]
   Sum of square amplitudes: 0.87

 NATURAL OCCUPATION NUMBERS (higher than 1.0E-05)
            1           2           3           4           5           6
    1   1.9999998   1.9999990   1.9938705   1.9875641   1.9704309   1.4996653
            7           8           9          10          11          12
    1   1.4996630   1.4893687   1.4893665   0.0277455   0.0094523   0.0049415
           13          14          15          16          17          18
    1   0.0049415   0.0030952   0.0026079   0.0024516   0.0023314   0.0023314
           19          20          21          22          23          24
    1   0.0013228   0.0012814   0.0012658   0.0010671   0.0010671   0.0006831
           25          26          27          28          29          30
    1   0.0004975   0.0004975   0.0004113   0.0002956   0.0002093   0.0001470
           31          32          33          34          35          36
    1   0.0001470   0.0001285   0.0001285   0.0000895   0.0000849   0.0000849
           37          38          39          40          41          42
    1   0.0000789   0.0000789   0.0000747   0.0000639   0.0000571   0.0000468
           43          44          45          46          47          48
    1   0.0000468   0.0000464   0.0000439   0.0000431   0.0000348   0.0000229
           49          50          51          52          53
    1   0.0000229   0.0000223   0.0000170   0.0000170   0.0000145

  Amplitudes : 
  
 | HOLE  | ALPHA     | BETA      | PART  |    AMPLITUDE 
--------------------------------------------------
 |       | 111111100 | 111010100 |       |    -6.5161719935006E-01
 |       | 111111100 | 110111000 |       |     6.5161827378468E-01
--------------------------------------------------
*** Contributions RASCI wfn    Active:  89.26
                                 Hole:   0.00
                                 Part:  10.74

      Mulliken population analysis 
 ---------------------------------------------------
   Atom    Charge (a.u.)   Spin (a.u.)  
 ---------------------------------------------------
   1  N   -0.528843        0.994169 
   2  F    0.528843        1.005831 
 ---------------------------------------------------
   Sum:   -0.000000        2.000000 
 ---------------------------------------------------
 
  
 NATURAL OCCUPATION NUMBERS (higher than 1.0E-05)
            1           2           3           4           5           6
    1   1.9999998   1.9999990   1.9938705   1.9875641   1.9704309   1.4996653
            7           8           9          10          11          12
    1   1.4996630   1.4893687   1.4893665   0.0277455   0.0094523   0.0049415
           13          14          15          16          17          18
    1   0.0049415   0.0030952   0.0026079   0.0024516   0.0023314   0.0023314
           19          20          21          22          23          24
    1   0.0013228   0.0012814   0.0012658   0.0010671   0.0010671   0.0006831
           25          26          27          28          29          30
    1   0.0004975   0.0004975   0.0004113   0.0002956   0.0002093   0.0001470
           31          32          33          34          35          36
    1   0.0001470   0.0001285   0.0001285   0.0000895   0.0000849   0.0000849
           37          38          39          40          41          42
    1   0.0000789   0.0000789   0.0000747   0.0000639   0.0000571   0.0000468
           43          44          45          46          47          48
    1   0.0000468   0.0000464   0.0000439   0.0000431   0.0000348   0.0000229
           49          50          51          52          53
    1   0.0000229   0.0000223   0.0000170   0.0000170   0.0000145
  
*** Unpaired Electrons
 Yamaguchi Nd:         3.26
 Head-Gordon Nu:       2.14
 Head-Gordon Nu_nl:    2.29
  
**************************************************
 RAS-CI total energy for state   8:   -153.656397826378
  Excitation energy (eV) =  8.570931025819
  State symmetry: A1    (C2v      )
  <S^2>      :  2.0000
  Dipole Moment:   -0.0000 X     0.0000 Y    -1.3058 Z
  Trans. Moment:    0.0000 X     0.0000 Y     0.0000 Z
  Strength   :  0.000000
  Natural transition orbitals ( 1 -> 8 ):
   e-/hole pair  1 alpha:  ampl =  0.004607 (  0.0%)   [9 : 10]
   e-/hole pair  2 alpha:  ampl =  0.004607 (  0.0%)   [8 : 11]
   e-/hole pair  1 beta :  ampl =  0.658487 ( 43.4%)   [9 : 10]
   e-/hole pair  2 beta :  ampl =  0.658481 ( 43.4%)   [8 : 11]
   Sum of square amplitudes: 0.87

 NATURAL OCCUPATION NUMBERS (higher than 1.0E-05)
            1           2           3           4           5           6
    1   1.9999998   1.9999989   1.9937945   1.9873927   1.9702440   1.4995432
            7           8           9          10          11          12
    1   1.4995352   1.4898978   1.4898898   0.0279616   0.0094339   0.0046437
           13          14          15          16          17          18
    1   0.0046437   0.0031031   0.0024658   0.0024658   0.0023886   0.0023886
           19          20          21          22          23          24
    1   0.0013289   0.0012586   0.0012586   0.0010605   0.0010605   0.0006894
           25          26          27          28          29          30
    1   0.0004970   0.0004970   0.0004248   0.0002981   0.0002111   0.0001631
           31          32          33          34          35          36
    1   0.0001631   0.0001284   0.0001284   0.0000913   0.0000913   0.0000895
           37          38          39          40          41          42
    1   0.0000895   0.0000828   0.0000828   0.0000638   0.0000476   0.0000476
           43          44          45          46          47          48
    1   0.0000466   0.0000466   0.0000435   0.0000353   0.0000353   0.0000236
           49          50          51          52          53
    1   0.0000236   0.0000236   0.0000168   0.0000168   0.0000147

  Amplitudes : 
  
 | HOLE  | ALPHA     | BETA      | PART  |    AMPLITUDE 
--------------------------------------------------
 |       | 111111100 | 111011000 |       |     6.5176069173816E-01
 |       | 111111100 | 110110100 |       |    -6.5175546273188E-01
--------------------------------------------------
*** Contributions RASCI wfn    Active:  89.33
                                 Hole:   0.00
                                 Part:  10.67

      Mulliken population analysis 
 ---------------------------------------------------
   Atom    Charge (a.u.)   Spin (a.u.)  
 ---------------------------------------------------
   1  N   -0.529691        0.993832 
   2  F    0.529691        1.006168 
 ---------------------------------------------------
   Sum:   -0.000000        2.000000 
 ---------------------------------------------------
 
  
 NATURAL OCCUPATION NUMBERS (higher than 1.0E-05)
            1           2           3           4           5           6
    1   1.9999998   1.9999989   1.9937945   1.9873927   1.9702440   1.4995432
            7           8           9          10          11          12
    1   1.4995352   1.4898978   1.4898898   0.0279616   0.0094339   0.0046437
           13          14          15          16          17          18
    1   0.0046437   0.0031031   0.0024658   0.0024658   0.0023886   0.0023886
           19          20          21          22          23          24
    1   0.0013289   0.0012586   0.0012586   0.0010605   0.0010605   0.0006894
           25          26          27          28          29          30
    1   0.0004970   0.0004970   0.0004248   0.0002981   0.0002111   0.0001631
           31          32          33          34          35          36
    1   0.0001631   0.0001284   0.0001284   0.0000913   0.0000913   0.0000895
           37          38          39          40          41          42
    1   0.0000895   0.0000828   0.0000828   0.0000638   0.0000476   0.0000476
           43          44          45          46          47          48
    1   0.0000466   0.0000466   0.0000435   0.0000353   0.0000353   0.0000236
           49          50          51          52          53
    1   0.0000236   0.0000236   0.0000168   0.0000168   0.0000147
  
*** Unpaired Electrons
 Yamaguchi Nd:         3.26
 Head-Gordon Nu:       2.14
 Head-Gordon Nu_nl:    2.29
  
**************************************************
 RAS-CI total energy for state   9:   -153.630340445617
  Excitation energy (eV) =  9.279988432047
  State symmetry: A2    (C2v      )
  <S^2>      :  2.0000
  Dipole Moment:    0.0000 X     0.0000 Y    -1.1166 Z
  Trans. Moment:   -0.0000 X     0.0000 Y    -0.4735 Z
  Strength   :  0.050964
  Natural transition orbitals ( 1 -> 9 ):
   e-/hole pair  1 alpha:  ampl =  0.218519 (  4.8%)   [9 : 10]
   e-/hole pair  2 alpha:  ampl =  0.068596 (  0.5%)   [8 : 11]
   e-/hole pair  1 beta :  ampl =  0.622037 ( 38.7%)   [9 : 10]
   e-/hole pair  2 beta :  ampl =  0.622036 ( 38.7%)   [8 : 11]
   Sum of square amplitudes: 0.86

 NATURAL OCCUPATION NUMBERS (higher than 1.0E-05)
            1           2           3           4           5           6
    1   1.9999998   1.9999987   1.9927505   1.9753727   1.9052838   1.6066817
            7           8           9          10          11          12
    1   1.6066809   1.3764242   1.3764235   0.1017195   0.0107002   0.0092330
           13          14          15          16          17          18
    1   0.0092330   0.0050993   0.0040702   0.0040702   0.0025693   0.0025693
           19          20          21          22          23          24
    1   0.0015537   0.0013327   0.0013327   0.0009900   0.0009900   0.0007693
           25          26          27          28          29          30
    1   0.0006966   0.0005982   0.0005982   0.0003720   0.0003006   0.0001830
           31          32          33          34          35          36
    1   0.0001830   0.0001022   0.0001022   0.0000911   0.0000911   0.0000893
           37          38          39          40          41          42
    1   0.0000656   0.0000656   0.0000544   0.0000544   0.0000508   0.0000508
           43          44          45          46          47          48
    1   0.0000501   0.0000501   0.0000448   0.0000367   0.0000367   0.0000348
           49          50          51          52          53          54
    1   0.0000287   0.0000245   0.0000245   0.0000151   0.0000151   0.0000109

  Amplitudes : 
  
 | HOLE  | ALPHA     | BETA      | PART  |    AMPLITUDE 
--------------------------------------------------
 |       | 111111100 | 111110000 |       |    -1.6630334057518E-01
 |       | 111111100 | 111100010 |       |    -1.0684080372192E-01
 |       | 111111100 | 111010100 |       |     6.2069233887229E-01
 |       | 111111100 | 110111000 |       |     6.2069107406965E-01
 |       | 111101110 | 111110000 |       |    -1.5423472506227E-01
--------------------------------------------------
*** Contributions RASCI wfn    Active:  88.65
                                 Hole:   0.00
                                 Part:  11.35

      Mulliken population analysis 
 ---------------------------------------------------
   Atom    Charge (a.u.)   Spin (a.u.)  
 ---------------------------------------------------
   1  N   -0.437855        1.222228 
   2  F    0.437855        0.777772 
 ---------------------------------------------------
   Sum:   -0.000000        2.000000 
 ---------------------------------------------------
 
  
 NATURAL OCCUPATION NUMBERS (higher than 1.0E-05)
            1           2           3           4           5           6
    1   1.9999998   1.9999987   1.9927505   1.9753727   1.9052838   1.6066817
            7           8           9          10          11          12
    1   1.6066809   1.3764242   1.3764235   0.1017195   0.0107002   0.0092330
           13          14          15          16          17          18
    1   0.0092330   0.0050993   0.0040702   0.0040702   0.0025693   0.0025693
           19          20          21          22          23          24
    1   0.0015537   0.0013327   0.0013327   0.0009900   0.0009900   0.0007693
           25          26          27          28          29          30
    1   0.0006966   0.0005982   0.0005982   0.0003720   0.0003006   0.0001830
           31          32          33          34          35          36
    1   0.0001830   0.0001022   0.0001022   0.0000911   0.0000911   0.0000893
           37          38          39          40          41          42
    1   0.0000656   0.0000656   0.0000544   0.0000544   0.0000508   0.0000508
           43          44          45          46          47          48
    1   0.0000501   0.0000501   0.0000448   0.0000367   0.0000367   0.0000348
           49          50          51          52          53          54
    1   0.0000287   0.0000245   0.0000245   0.0000151   0.0000151   0.0000109
  
*** Unpaired Electrons
 Yamaguchi Nd:         3.53
 Head-Gordon Nu:       2.32
 Head-Gordon Nu_nl:    2.35
  
**************************************************
 RAS-CI total energy for state  10:   -153.576039240816
  Excitation energy (eV) = 10.757599393195
  State symmetry: A2    (C2v      )
  <S^2>      :  6.0000
  Dipole Moment:   -0.0000 X     0.0000 Y     0.0436 Z
  Trans. Moment:    0.0000 X    -0.0000 Y     0.0000 Z
  Strength   :  0.000000
  Natural transition orbitals ( 1 -> 10 ):
   e-/hole pair  1 alpha:  ampl =  0.482568 ( 23.3%)   [9 : 10]
   e-/hole pair  2 alpha:  ampl =  0.037121 (  0.1%)   [8 : 11]
   e-/hole pair  1 beta :  ampl =  0.482568 ( 23.3%)   [9 : 10]
   e-/hole pair  2 beta :  ampl =  0.037121 (  0.1%)   [8 : 11]
   Sum of square amplitudes: 0.47

 NATURAL OCCUPATION NUMBERS (higher than 1.0E-05)
            1           2           3           4           5           6
    1   1.9999999   1.9999984   1.9945282   1.9853391   1.9853391   1.9665348
            7           8           9          10          11          12
    1   1.0159716   1.0083684   1.0083684   0.9918694   0.0099179   0.0071559
           13          14          15          16          17          18
    1   0.0045622   0.0045622   0.0033708   0.0017233   0.0017233   0.0015781
           19          20          21          22          23          24
    1   0.0015781   0.0011409   0.0011409   0.0011342   0.0009646   0.0005261
           25          26          27          28          29          30
    1   0.0005261   0.0004873   0.0003001   0.0003001   0.0002462   0.0000695
           31          32          33          34          35          36
    1   0.0000655   0.0000655   0.0000592   0.0000592   0.0000574   0.0000370
           37          38          39          40          41          42
    1   0.0000291   0.0000291   0.0000278   0.0000278   0.0000228   0.0000189
           43          44          45          46          47          48
    1   0.0000189   0.0000167   0.0000167   0.0000159   0.0000159   0.0000124
           49          50          51          52
    1   0.0000124   0.0000111   0.0000106   0.0000106

  Amplitudes : 
  
 | HOLE  | ALPHA     | BETA      | PART  |    AMPLITUDE 
--------------------------------------------------
 |       | 111111100 | 111100010 |       |    -4.4313555421586E-01
 |       | 111111010 | 111100100 |       |     4.4313555421590E-01
 |       | 111110110 | 111101000 |       |    -4.4313555421582E-01
 |       | 111101110 | 111110000 |       |     4.4313555421583E-01
 |       | 111101100 | 111110000 |  14   |     1.7567697110943E-01
 |       | 111110100 | 111101000 |  14   |    -1.7567697110942E-01
 |       | 111111000 | 111100100 |  14   |     1.7567697110946E-01
 |       | 111111100 | 111100000 |  14   |    -1.7567697110942E-01
--------------------------------------------------
*** Contributions RASCI wfn    Active:  82.39
                                 Hole:   0.00
                                 Part:  17.61

      Mulliken population analysis 
 ---------------------------------------------------
   Atom    Charge (a.u.)   Spin (a.u.)  
 ---------------------------------------------------
   1  N   -0.225851        1.675463 
   2  F    0.225851        0.324537 
 ---------------------------------------------------
   Sum:   -0.000000        2.000000 
 ---------------------------------------------------
 
  
 NATURAL OCCUPATION NUMBERS (higher than 1.0E-05)
            1           2           3           4           5           6
    1   1.9999999   1.9999984   1.9945282   1.9853391   1.9853391   1.9665348
            7           8           9          10          11          12
    1   1.0159716   1.0083684   1.0083684   0.9918694   0.0099179   0.0071559
           13          14          15          16          17          18
    1   0.0045622   0.0045622   0.0033708   0.0017233   0.0017233   0.0015781
           19          20          21          22          23          24
    1   0.0015781   0.0011409   0.0011409   0.0011342   0.0009646   0.0005261
           25          26          27          28          29          30
    1   0.0005261   0.0004873   0.0003001   0.0003001   0.0002462   0.0000695
           31          32          33          34          35          36
    1   0.0000655   0.0000655   0.0000592   0.0000592   0.0000574   0.0000370
           37          38          39          40          41          42
    1   0.0000291   0.0000291   0.0000278   0.0000278   0.0000228   0.0000189
           43          44          45          46          47          48
    1   0.0000189   0.0000167   0.0000167   0.0000159   0.0000159   0.0000124
           49          50          51          52
    1   0.0000124   0.0000111   0.0000106   0.0000106
  
*** Unpaired Electrons
 Yamaguchi Nd:         4.22
 Head-Gordon Nu:       4.07
 Head-Gordon Nu_nl:    4.01
  
**************************************************
 RAS-CI total energy for state  11:   -153.525618912645
  Excitation energy (eV) = 12.129606328239
  Warning: not all configurations have same symmetry
  State symmetry: *B2    (C2v      )
  <S^2>      :  2.0000
  Dipole Moment:    0.0000 X     0.0000 Y    -0.5352 Z
  Trans. Moment:   -0.1382 X     0.2984 Y     0.0000 Z
  Strength   :  0.032132
  Natural transition orbitals ( 1 -> 11 ):
   e-/hole pair  1 alpha:  ampl =  0.939233 ( 88.2%)   [9 : 10]
   e-/hole pair  2 alpha:  ampl =  0.034220 (  0.1%)   [8 : 11]
   e-/hole pair  1 beta :  ampl =  0.096004 (  0.9%)   [9 : 10]
   e-/hole pair  2 beta :  ampl =  0.038537 (  0.1%)   [8 : 11]
   Sum of square amplitudes: 0.90

 NATURAL OCCUPATION NUMBERS (higher than 1.0E-05)
            1           2           3           4           5           6
    1   1.9999997   1.9999973   1.9941204   1.9751535   1.9601926   1.9371429
            7           8           9          10          11          12
    1   1.9174048   1.0185454   0.9739218   0.1325456   0.0439935   0.0101462
           13          14          15          16          17          18
    1   0.0073694   0.0069441   0.0032511   0.0031473   0.0028102   0.0024815
           19          20          21          22          23          24
    1   0.0018138   0.0014090   0.0012058   0.0010077   0.0009196   0.0007671
           25          26          27          28          29          30
    1   0.0007077   0.0006029   0.0004935   0.0004378   0.0003211   0.0002136
           31          32          33          34          35          36
    1   0.0000976   0.0000798   0.0000720   0.0000577   0.0000564   0.0000548
           37          38          39          40          41          42
    1   0.0000466   0.0000427   0.0000379   0.0000347   0.0000324   0.0000322
           43          44          45          46          47          48
    1   0.0000322   0.0000283   0.0000276   0.0000242   0.0000237   0.0000234
           49          50          51          52          53          54
    1   0.0000221   0.0000208   0.0000190   0.0000178   0.0000154   0.0000109

  Amplitudes : 
  
 | HOLE  | ALPHA     | BETA      | PART  |    AMPLITUDE 
--------------------------------------------------
 |       | 111111010 | 111110000 |       |    -1.2347111235279E-01
 |       | 111111001 | 111110000 |       |     7.7516649406667E-01
 |       | 111111001 | 111010100 |       |     1.6670025963985E-01
 |       | 111111001 | 110111000 |       |     1.0670490280305E-01
 |       | 111110101 | 111110000 |       |    -3.5909136765522E-01
 |       | 111011101 | 111110000 |       |    -2.3799215074354E-01
 |       | 110111101 | 111110000 |       |    -1.1024922970976E-01
--------------------------------------------------
*** Contributions RASCI wfn    Active:  92.12
                                 Hole:   0.00
                                 Part:   7.88

      Mulliken population analysis 
 ---------------------------------------------------
   Atom    Charge (a.u.)   Spin (a.u.)  
 ---------------------------------------------------
   1  N   -0.534087        2.183741 
   2  F    0.534087       -0.183741 
 ---------------------------------------------------
   Sum:   -0.000000        2.000000 
 ---------------------------------------------------
 
  
 NATURAL OCCUPATION NUMBERS (higher than 1.0E-05)
            1           2           3           4           5           6
    1   1.9999997   1.9999973   1.9941204   1.9751535   1.9601926   1.9371429
            7           8           9          10          11          12
    1   1.9174048   1.0185454   0.9739218   0.1325456   0.0439935   0.0101462
           13          14          15          16          17          18
    1   0.0073694   0.0069441   0.0032511   0.0031473   0.0028102   0.0024815
           19          20          21          22          23          24
    1   0.0018138   0.0014090   0.0012058   0.0010077   0.0009196   0.0007671
           25          26          27          28          29          30
    1   0.0007077   0.0006029   0.0004935   0.0004378   0.0003211   0.0002136
           31          32          33          34          35          36
    1   0.0000976   0.0000798   0.0000720   0.0000577   0.0000564   0.0000548
           37          38          39          40          41          42
    1   0.0000466   0.0000427   0.0000379   0.0000347   0.0000324   0.0000322
           43          44          45          46          47          48
    1   0.0000322   0.0000283   0.0000276   0.0000242   0.0000237   0.0000234
           49          50          51          52          53          54
    1   0.0000221   0.0000208   0.0000190   0.0000178   0.0000154   0.0000109
  
*** Unpaired Electrons
 Yamaguchi Nd:         2.85
 Head-Gordon Nu:       2.39
 Head-Gordon Nu_nl:    2.12
  
**************************************************
 RAS-CI total energy for state  12:   -153.525618901031
  Excitation energy (eV) = 12.129606644280
  Warning: not all configurations have same symmetry
  State symmetry: *B2    (C2v      )
  <S^2>      :  2.0000
  Dipole Moment:   -0.0000 X     0.0000 Y    -0.5352 Z
  Trans. Moment:    0.2984 X     0.1382 Y     0.0000 Z
  Strength   :  0.032133
  Natural transition orbitals ( 1 -> 12 ):
   e-/hole pair  1 alpha:  ampl =  0.939234 ( 88.2%)   [9 : 10]
   e-/hole pair  2 alpha:  ampl =  0.034230 (  0.1%)   [8 : 11]
   e-/hole pair  1 beta :  ampl =  0.096005 (  0.9%)   [9 : 10]
   e-/hole pair  2 beta :  ampl =  0.038540 (  0.1%)   [8 : 11]
   Sum of square amplitudes: 0.90

 NATURAL OCCUPATION NUMBERS (higher than 1.0E-05)
            1           2           3           4           5           6
    1   1.9999997   1.9999973   1.9941208   1.9751540   1.9601943   1.9371442
            7           8           9          10          11          12
    1   1.9174055   1.0185443   0.9739217   0.1325423   0.0439939   0.0101466
           13          14          15          16          17          18
    1   0.0073696   0.0069438   0.0032508   0.0031471   0.0028103   0.0024815
           19          20          21          22          23          24
    1   0.0018138   0.0014089   0.0012059   0.0010078   0.0009195   0.0007671
           25          26          27          28          29          30
    1   0.0007076   0.0006028   0.0004935   0.0004378   0.0003211   0.0002136
           31          32          33          34          35          36
    1   0.0000975   0.0000798   0.0000720   0.0000577   0.0000564   0.0000548
           37          38          39          40          41          42
    1   0.0000466   0.0000427   0.0000379   0.0000347   0.0000324   0.0000322
           43          44          45          46          47          48
    1   0.0000322   0.0000283   0.0000276   0.0000242   0.0000237   0.0000234
           49          50          51          52          53          54
    1   0.0000221   0.0000208   0.0000190   0.0000178   0.0000154   0.0000109

  Amplitudes : 
  
 | HOLE  | ALPHA     | BETA      | PART  |    AMPLITUDE 
--------------------------------------------------
 |       | 111111001 | 111110000 |       |     3.5909161204082E-01
 |       | 111110110 | 111110000 |       |    -1.2347107882535E-01
 |       | 111110101 | 111110000 |       |     7.7516643487549E-01
 |       | 111110101 | 111010100 |       |     1.0669455186784E-01
 |       | 111110101 | 110111000 |       |     1.6671639843607E-01
 |       | 111011101 | 111110000 |       |    -1.1024848441415E-01
 |       | 110111101 | 111110000 |       |     2.3799240073625E-01
--------------------------------------------------
*** Contributions RASCI wfn    Active:  92.12
                                 Hole:   0.00
                                 Part:   7.88

      Mulliken population analysis 
 ---------------------------------------------------
   Atom    Charge (a.u.)   Spin (a.u.)  
 ---------------------------------------------------
   1  N   -0.534071        2.183697 
   2  F    0.534071       -0.183697 
 ---------------------------------------------------
   Sum:   -0.000000        2.000000 
 ---------------------------------------------------
 
  
 NATURAL OCCUPATION NUMBERS (higher than 1.0E-05)
            1           2           3           4           5           6
    1   1.9999997   1.9999973   1.9941208   1.9751540   1.9601943   1.9371442
            7           8           9          10          11          12
    1   1.9174055   1.0185443   0.9739217   0.1325423   0.0439939   0.0101466
           13          14          15          16          17          18
    1   0.0073696   0.0069438   0.0032508   0.0031471   0.0028103   0.0024815
           19          20          21          22          23          24
    1   0.0018138   0.0014089   0.0012059   0.0010078   0.0009195   0.0007671
           25          26          27          28          29          30
    1   0.0007076   0.0006028   0.0004935   0.0004378   0.0003211   0.0002136
           31          32          33          34          35          36
    1   0.0000975   0.0000798   0.0000720   0.0000577   0.0000564   0.0000548
           37          38          39          40          41          42
    1   0.0000466   0.0000427   0.0000379   0.0000347   0.0000324   0.0000322
           43          44          45          46          47          48
    1   0.0000322   0.0000283   0.0000276   0.0000242   0.0000237   0.0000234
           49          50          51          52          53          54
    1   0.0000221   0.0000208   0.0000190   0.0000178   0.0000154   0.0000109
  
*** Unpaired Electrons
 Yamaguchi Nd:         2.85
 Head-Gordon Nu:       2.39
 Head-Gordon Nu_nl:    2.12
  
**************************************************
 RAS-CI total energy for state  13:   -153.467146951986
  Excitation energy (eV) = 13.720709330572
  Warning: not all configurations have same symmetry
  State symmetry: *B2    (C2v      )
  <S^2>      :  2.0000
  Dipole Moment:   -0.0000 X     0.0000 Y    -1.0793 Z
  Trans. Moment:   -0.0592 X    -0.0115 Y     0.0000 Z
  Strength   :  0.001223
  Natural transition orbitals ( 1 -> 13 ):
   e-/hole pair  1 alpha:  ampl =  0.652500 ( 42.6%)   [9 : 10]
   e-/hole pair  2 alpha:  ampl =  0.036194 (  0.1%)   [8 : 11]
   e-/hole pair  1 beta :  ampl =  0.152738 (  2.3%)   [9 : 10]
   e-/hole pair  2 beta :  ampl =  0.144913 (  2.1%)   [8 : 11]
   Sum of square amplitudes: 0.47

 NATURAL OCCUPATION NUMBERS (higher than 1.0E-05)
            1           2           3           4           5           6
    1   1.9999998   1.9999986   1.9929731   1.9674306   1.9541315   1.8023675
            7           8           9          10          11          12
    1   1.2780857   1.1572341   0.9736435   0.8221883   0.0121279   0.0103913
           13          14          15          16          17          18
    1   0.0039196   0.0037502   0.0032719   0.0032471   0.0021755   0.0019019
           19          20          21          22          23          24
    1   0.0018184   0.0013021   0.0012701   0.0011907   0.0009898   0.0008496
           25          26          27          28          29          30
    1   0.0006791   0.0005926   0.0004055   0.0003994   0.0002854   0.0001004
           31          32          33          34          35          36
    1   0.0000989   0.0000921   0.0000916   0.0000871   0.0000864   0.0000830
           37          38          39          40          41          42
    1   0.0000800   0.0000794   0.0000685   0.0000607   0.0000580   0.0000522
           43          44          45          46          47          48
    1   0.0000463   0.0000409   0.0000354   0.0000313   0.0000261   0.0000254
           49          50          51          52          53          54
    1   0.0000213   0.0000199   0.0000183   0.0000181   0.0000171   0.0000155

  Amplitudes : 
  
 | HOLE  | ALPHA     | BETA      | PART  |    AMPLITUDE 
--------------------------------------------------
 |       | 111111100 | 110110010 |       |    -1.3557459150356E-01
 |       | 111111100 | 101111000 |       |     1.4747522674281E-01
 |       | 111111010 | 111011000 |       |    -1.1866840427662E-01
 |       | 111111010 | 110110100 |       |     4.6900796514655E-01
 |       | 111110110 | 111110000 |       |     1.3827803041869E-01
 |       | 111110110 | 111010100 |       |     3.6783909939074E-01
 |       | 111011110 | 111110000 |       |     1.1436783533176E-01
 |       | 110111110 | 111110000 |       |    -5.8706552872827E-01
 |       | 110111100 | 111110000 |  14   |    -1.9252846706070E-01
 |       | 111110100 | 111010100 |  14   |     1.1347523507257E-01
 |       | 111111000 | 110110100 |  14   |     1.4949541680119E-01
--------------------------------------------------
[...]
    22    9.711769968354e-15
    23    1.061179800038e-13
    24    9.899277401302e-01
    25    1.560951615843e-15
    26    1.152460993040e-16
    27    3.525378414103e-17
    28    1.622101842961e-15
    29    1.448060797711e-02
    30    3.564335049049e-16
    31   -1.730407794712e-16
    32   -2.121568968107e-15
    33   -4.739313741756e-15
    34   -5.736023275307e-15
    35    1.149976428177e-13
    36   -2.509535754799e-13
    37    1.074056026503e-16
    38   -9.122298438914e-16
    39   -2.398652446801e-15
    40    6.599900809973e-16
    41   -7.737614830893e-16
    42   -1.360179820228e-15
    43    2.729691661592e-16
    44   -4.189328302932e-15
    45    9.243870617172e-14
    46    1.062956853472e-15
    47    2.714624113202e-17
    48   -1.555046592965e-16
    49   -4.041869005294e-17
    50   -4.644649693774e-04
    51   -2.186517129890e-15
    52    3.793274956969e-17
    53   -1.239162978118e-15
    54    1.093615143749e-14
    55    1.015958627032e-01
    56    5.092345367667e-16
    57    3.207384153659e-17
    58    6.353276416026e-17
    59   -5.160824178599e-16
    60   -4.610107016798e-03
    61    1.460718405634e-16
    62    5.892185162686e-17
Sym=X
Ene= 1.147059
Spin=Alpha
Occup=0
     1   -1.506106018600e-08
     2   -4.440328569280e-08
     3    2.040633378614e-07
     4   -1.061179209009e-07
     5    1.138305694923e-06
     6   -5.042528245754e-16
     7   -1.249550738923e-16
     8    4.766823767098e-08
     9   -1.811481452001e-17
    10    5.874300280530e-16
    11    2.788925150574e-07
    12    9.834181739042e-16
    13   -1.153223189703e-15
    14    6.136176316821e-07
    15   -7.222556429695e-09
    16    1.958926150527e-16
    17   -5.266436295501e-17
    18    1.740154899600e-02
    19   -1.983501393629e-15
    20    1.853272703818e-07
    21   -2.592974466461e-15
    22   -2.099438758655e-15
    23   -9.899277401071e-01
    24    1.061998914780e-13
    25    1.638259246715e-08
    26   -2.467865912190e-17
    27    2.242834155083e-17
    28   -1.448060798264e-02
    29    2.219655026357e-15
    30    3.949619978563e-17
    31   -4.040707836460e-17
    32   -1.204621889708e-08
    33   -2.211547869042e-08
    34   -1.071037086093e-07
    35    9.324997692180e-07
    36   -2.048763109700e-06
    37    9.965974629137e-16
    38   -5.603211563764e-17
    39    3.302495472731e-08
    40    1.151837596473e-15
    41   -3.277047419891e-16
    42    6.710246426626e-08
    43   -2.098258187545e-15
    44    1.512349840003e-15
    45    6.243262601842e-07
    46    9.066735059022e-09
    47    8.088083228882e-17
    48   -5.677492589565e-17
    49    4.644649672871e-04
    50    5.078838751212e-17
    51   -2.574828820367e-08
    52   -5.203283290569e-17
    53    2.186358681337e-17
    54   -1.015958627079e-01
    55    1.076616505399e-14
    56    4.395808468823e-09
    57   -3.505912001061e-17
    58    1.536277201110e-17
    59    4.610107017834e-03
    60   -5.938876880211e-16
    61    2.003961592204e-17
    62    2.902573240696e-17
Sym=X
Ene= 1.292006
Spin=Alpha
Occup=0
     1    3.769299510547e-17
     2    1.062632958740e-16
     3   -5.546241724896e-16
     4    5.734679179603e-16
     5   -2.360383194621e-16
     6    5.835746187410e-02
     7    1.164288525746e-08
     8   -9.551052440134e-17
     9    2.642161445409e-02
    10    2.881080822525e-08
    11    7.272830437554e-16
    12   -2.850207802660e-01
    13   -3.296082345255e-08
    14   -2.859640035489e-16
    15   -1.230862237209e-16
    16    7.420787205825e-03
    17   -2.386682955218e-10
    18   -1.485679178589e-16
    19    1.036044416063e-16
    20    9.637745731947e-16
    21   -1.038548562508e+00
    22    8.136687998372e-08
    23    2.507035268733e-15
    24   -2.581908641837e-15
    25    1.722575485042e-16
    26   -1.133738782561e-02
    27    7.170349815202e-10
    28   -7.682814801377e-17
    29   -2.686294429376e-16
    30   -4.996801873870e-09
    31    3.280728513042e-14
    32    6.509808433428e-17
    33    1.594945870923e-16
    34   -1.281822353171e-19
    35   -2.291237998924e-15
    36    2.010596684814e-15
    37    8.899941187391e-02
    38   -6.921859405096e-09
    39    2.887606586515e-19
    40    8.455304313330e-02
    41   -4.319668095443e-09
    42    5.960018995782e-16
    43    4.097883182599e-01
    44   -3.252279821148e-08
    45   -2.329747717798e-16
    46   -1.120657815911e-16
    47    1.667225779795e-02
    48   -1.316829814245e-09
    49    9.484241430994e-17
    50    8.844455105375e-17
    51   -6.823859950573e-16
    52    1.285860966725e-01
    53   -9.925102175887e-09
    54    5.923144068406e-16
    55   -1.899484807515e-15
    56    1.276798350645e-17
    57    7.221453350398e-03
    58   -5.269107773796e-10
    59    1.017528414688e-17
    60   -3.804098612639e-17
    61   -1.830689364407e-09
    62    1.467639467493e-14
Sym=X
Ene= 1.292006
Spin=Alpha
Occup=0
     1   -2.322544309311e-16
     2   -4.313781054534e-16
     3   -1.231791571666e-15
     4    1.180335447006e-14
     5    2.692842957534e-14
     6    1.387338648129e-08
     7    5.835754080364e-02
     8   -8.440967528775e-16
     9    5.920189402944e-09
    10    2.642137719583e-02
    11    7.065381105312e-15
    12   -2.405690437482e-08
    13   -2.850203804309e-01
    14    2.151390096589e-14
    15    1.045922516710e-16
    16    5.734509765914e-10
    17    7.420772279403e-03
    18   -1.521305471094e-16
    19   -9.293291091504e-17
    20    2.443552974302e-15
    21   -7.914826233302e-08
    22   -1.038548492848e+00
    23    2.315085125570e-15
    24    1.060994432834e-14
    25    6.929808344084e-16
    26   -1.154463487264e-09
    27   -1.133737975403e-02
    28   -5.244744257878e-16
    29   -1.565096711762e-16
    30    9.552768704798e-14
    31   -4.988209557337e-09
    32   -6.997192776939e-16
    33   -1.598884937458e-15
    34   -3.909560857608e-16
    35    3.076364993135e-14
    36   -6.680829569767e-14
    37    4.938177358346e-09
    38    8.899950700718e-02
    39   -2.331833008148e-16
    40    5.656980196778e-09
    41    8.455334439894e-02
    42   -4.938385143312e-16
    43    2.728884070102e-08
    44    4.097878969449e-01
    45    2.352591912885e-14
    46    2.946106169596e-16
    47    1.262728484058e-09
    48    1.667225377474e-02
    49   -5.676750644182e-17
    50   -7.075414981800e-17
    51   -1.126617680122e-15
    52    1.046357221181e-08
    53    1.285861690105e-01
    54   -5.869287654453e-16
    55   -4.903509880207e-16
    56    1.444283474965e-16
    57    5.585831075027e-10
    58    7.221448723150e-03
    59   -2.494720199735e-17
    60   -1.556573221058e-16
    61    3.175182905199e-15
    62   -1.832220861301e-09
Sym=X
Ene= 1.648635
Spin=Alpha
Occup=0
     1    3.339937813057e-02
     2    1.020208539565e-01
     3   -4.607119929554e-01
     4    5.984904146399e-01
     5   -1.452612334016e+00
     6   -4.827250673000e-16
     7    4.147224219863e-15
     8   -2.864367043688e-01
     9    5.815730836582e-16
    10   -5.582458432437e-15
    11   -1.008982711160e-01
    12   -3.247825195165e-16
    13    1.838865122532e-15
    14   -1.072884465326e+00
    15    2.499214485908e-02
    16   -2.968308207711e-17
    17   -5.312999207778e-16
    18   -2.236718379849e-09
    19    4.512011430796e-16
    20   -1.433574575554e+00
    21   -4.890140160854e-16
    22   -4.093430326167e-16
    23   -8.646184308242e-08
    24   -3.483367345997e-15
    25   -3.599574088178e-02
    26   -1.304995731844e-16
    27    8.181318904232e-16
    28   -4.736143200153e-09
    29   -1.377143943816e-16
    30    7.248919001322e-19
    31    1.890170223665e-16
    32   -8.983558406263e-03
    33   -1.921171326057e-02
    34   -4.775243191118e-02
    35    2.914175535761e-01
    36    1.617857870149e+00
    37   -7.626498685815e-17
    38   -7.800453431163e-16
    39   -1.540316596299e-01
    40    1.569808528696e-16
    41    4.719079618877e-16
    42   -6.551208344043e-01
    43    1.232058811317e-16
    44    5.737893660669e-16
    45   -1.408574068662e-01
    46   -1.828861321242e-02
    47    2.432249642315e-17
    48    1.640659757546e-16
    49    1.112421731291e-09
    50   -2.140954732689e-16
    51    4.465560125046e-02
    52   -2.343078005635e-16
    53   -2.807252804204e-15
    54   -3.230280493749e-08
    55    1.115646816984e-15
    56   -5.125195503503e-03
    57    1.318583096669e-16
    58   -1.238047536351e-17
    59    4.618976105065e-09
    60    7.854495257465e-17
    61   -4.060061336098e-18
    62    6.187404481448e-16
Sym=X
Ene= 2.123799
Spin=Alpha
Occup=0
     1    1.150034483098e-01
     2    4.027453527183e-01
     3   -2.789175757174e+00
     4    3.883487203548e+00
     5   -1.173620320955e+00
     6    3.385533589257e-15
     7   -1.622009981157e-14
     8    4.448926727851e-01
     9   -4.195879453194e-15
    10    2.017126445358e-14
    11   -2.498756753160e-01
    12    1.399192052044e-15
    13   -8.957102984699e-15
    14    4.389635959422e-01
    15   -7.147859582582e-03
    16    4.274371554253e-16
    17   -2.189384228686e-16
    18    4.722477125614e-09
    19    4.434989278206e-16
    20    3.311178166145e-01
    21   -9.012939208498e-17
    22   -2.711668723646e-15
    23   -2.013587209345e-08
    24   -1.749761530140e-15
    25    1.614124881580e-02
    26   -1.714117836829e-16
    27    1.440113641992e-15
    28   -1.434191782823e-08
    29    8.000465346404e-16
    30   -1.888633370606e-18
    31   -1.225766325937e-17
    32    5.379575650886e-03
    33    1.222576449235e-02
    34    2.021996175453e-02
    35   -1.646949865099e-01
    36   -4.896441207957e-01
    37    4.837674635670e-16
    38   -9.552227974471e-16
    39    2.666015005298e-02
    40   -4.226403353656e-16
    41   -6.905995532156e-16
    42    2.763744996625e-01
    43    3.516064090967e-16
    44    2.300446782569e-15
    45    2.587381509323e-01
    46    1.142880538393e-02
    47    1.858097086164e-16
    48   -1.879533477352e-16
    49    1.374011701966e-09
    50   -1.426856605161e-17
    51   -8.098849047460e-02
    52   -3.656828762406e-16
    53   -2.251171708520e-15
    54   -1.749903037830e-07
    55    5.790102465928e-16
    56    2.009290792982e-02
    57   -2.757715536316e-17
    58    7.379141384716e-18
    59    2.351703767343e-09
    60   -2.801279319878e-17
    61   -6.140830339402e-17
    62    7.495629443571e-16
Sym=X
Ene= 2.237448
Spin=Alpha
Occup=0
     1   -2.111907564135e-08
     2   -7.160066945001e-08
     3    4.482502615936e-07
     4   -4.972932970761e-07
     5    3.572661880433e-07
     6    9.744493576966e-15
     7   -2.024033265622e-13
     8   -8.453745892971e-08
     9   -1.394963336946e-14
    10    2.563556573387e-13
    11    1.589274020739e-07
    12    8.433983298543e-15
    13   -1.350537911630e-13
    14    3.279197057452e-08
    15    4.512543074871e-09
    16    3.058529896104e-16
    17    3.915162295149e-16
    18    1.374033972978e-02
    19   -6.117838150200e-19
    20    1.281824493506e-08
    21    7.161709285405e-16
    22   -4.443998007237e-14
    23    2.274390578430e-01
    24    9.799369909873e-16
    25    2.043634895432e-09
    26    6.671765322033e-16
    27    2.917905834308e-15
    28   -8.412197076772e-02
    29   -7.110087978963e-16
    30   -3.290117881235e-16
    31   -9.839841869174e-17
    32    7.867129276936e-10
    33    5.451215765125e-09
    34   -1.164529955165e-07
    35    3.814707531405e-07
    36   -4.825175298326e-07
    37    8.657150692713e-16
    38   -1.502246712999e-14
    39    6.139535832105e-09
    40    6.892490395935e-16
    41   -3.071462233113e-15
    42   -7.957528504209e-09
    43   -2.562872501267e-15
    44    3.745341908410e-14
    45    1.312217317527e-07
    46    3.371807353074e-09
    47    1.378127501123e-16
    48   -8.369427525381e-16
    49    9.184883077629e-03
    50   -2.645195129782e-16
    51   -2.681042029604e-08
    52    1.809832840106e-15
    53   -5.870855939657e-14
    54   -9.938856216157e-01
    55   -3.551204686296e-15
    56   -1.519080397175e-09
    57    4.579735425129e-16
    58   -4.572819791932e-16
    59    7.249057039785e-03
    60   -6.692991047275e-19
    61   -2.577105335481e-16
    62   -2.935637779691e-16
Sym=X
Ene= 2.237448
Spin=Alpha
Occup=0
     1    3.498964024326e-16
     2    1.174908939219e-15
     3   -9.930406666748e-15
     4    1.761542475210e-14
     5   -4.003793461838e-15
     6    2.836276858417e-13
     7   -4.649617925463e-13
     8   -4.743972949425e-15
     9   -3.593735931480e-13
    10    5.889868833705e-13
    11    1.269119270358e-14
    12    1.905310174806e-13
    13   -3.100608363165e-13
    14   -3.266087757748e-15
    15   -7.750171801626e-16
    16   -1.012373942895e-15
    17    1.407056469707e-15
    18   -3.053268792519e-16
    19    1.374033972332e-02
    20    3.566358375033e-15
    21    6.647307518099e-14
    22   -1.004999576812e-13
    23   -8.731438578560e-16
    24    2.274390578424e-01
    25    4.031281768112e-16
    26   -4.518676345394e-15
    27    5.973006563835e-15
    28    4.902278778270e-16
    29   -8.412197076451e-02
    30    1.149580518259e-15
    31    5.719062974687e-16
    32   -1.119169531770e-18
    33   -2.692108709344e-16
    34    3.027731284008e-15
    35   -6.357115464411e-15
    36   -2.662019960560e-15
    37    1.975301915872e-14
    38   -3.055592595110e-14
    39    1.684436840410e-15
    40    4.599615125136e-15
    41   -1.091447965196e-14
    42    3.240537828192e-15
    43   -5.544360808931e-14
    44    8.790172783251e-14
    45    3.131210902879e-15
    46    4.968581687110e-16
    47    6.727946995942e-16
    48   -9.950812117138e-16
    49    5.856643722571e-17
    50    9.184883085922e-03
    51   -3.379370652642e-15
    52    8.034828202580e-14
    53   -1.308701025808e-13
    54    3.787223941879e-15
    55   -9.938856216214e-01
    56    4.239289863998e-16
    57    8.969946363666e-16
    58   -7.058054253591e-16
    59   -2.076881189079e-17
    60    7.249057039695e-03
    61   -5.064710030828e-17
    62    1.206584563661e-16
Sym=X
Ene= 2.207980
Spin=Alpha
Occup=0
     1    1.577402862793e-16
     2    7.510127970245e-16
     3   -6.159302911823e-15
     4    1.075672089937e-14
     5   -1.902110493461e-15
     6   -1.151400630894e+00
     7   -2.834361408459e-07
     8    3.130194173856e-15
     9    1.458380662072e+00
    10    2.767619828384e-07
    11   -8.728103522736e-16
    12   -7.716865074771e-01
    13   -5.285258510013e-08
    14    2.217265420769e-15
    15   -1.213912552074e-16
    16    3.701111230949e-03
    17    1.699721489248e-10
    18   -2.927363972857e-16
    19    3.514056116022e-15
    20    2.090530653081e-15
    21   -2.613445166223e-01
    22   -6.469662122135e-08
    23    2.755101809461e-15
    24    5.539204348076e-14
    25    2.800578759015e-16
    26    1.694359334417e-02
    27    3.775029543222e-09
    28   -7.625467359476e-16
    29   -1.927444265078e-14
    30    9.119754394961e-09
    31   -1.279434590435e-13
    32    1.690085563637e-17
    33   -4.051739157868e-17
    34    7.854692371560e-16
    35   -3.763872650298e-16
    36   -4.064253223045e-15
    37   -7.882814645164e-02
    38   -1.770326461988e-08
    39    3.349812431056e-16
    40   -1.940000398413e-02
    41   -7.713706876749e-09
    42    8.796252808862e-16
    43    2.192930142027e-01
    44    4.737537960976e-08
    45    2.215650085008e-15
    46    1.301404524637e-16
    47   -2.763968796358e-03
    48   -6.039740781141e-10
    49    2.048082698711e-16
    50    2.066272540448e-15
    51   -2.620504710441e-15
    52   -3.316956067677e-01
    53   -7.449626036621e-08
    54   -8.249336075222e-15
    55   -2.458788743914e-13
    56    9.737402309371e-17
    57   -2.486951394988e-03
    58   -5.539407630918e-10
    59    1.551876081751e-16
    60    1.884987544295e-15
    61    1.038502235594e-09
    62   -7.193367764193e-14
Sym=X
Ene= 2.207980
Spin=Alpha
Occup=0
     1    1.596959125541e-15
     2    4.936777287067e-15
     3   -2.847100288339e-14
     4    2.972122497126e-14
     5   -1.555194245434e-14
     6   -2.669522578182e-07
     7    1.151400527509e+00
     8    1.192691818678e-14
     9    3.479766302883e-07
    10   -1.458380937966e+00
    11   -2.381769373831e-14
    12   -2.017705780042e-07
    13    7.716867330210e-01
    14    8.344564623726e-15
    15    1.426716014550e-15
    16    8.516046460342e-10
    17   -3.701130285539e-03
    18    2.775096239672e-15
    19    5.757211732103e-15
    20   -2.107983428680e-15
    21   -5.825427727355e-08
    22    2.613445943382e-01
    23    3.934879875793e-14
    24    9.103061071221e-14
    25   -1.842289205596e-15
    26    3.698885459860e-09
    27   -1.694358759279e-02
    28   -1.351130615535e-14
    29   -3.390163145867e-14
    30    2.828624714481e-13
    31   -9.165791198541e-09
    32    2.032284809294e-16
    33    6.184862743540e-16
    34   -3.525417966602e-15
    35    4.130464488881e-15
    36    5.416627991907e-15
    37   -2.198594519268e-08
    38    7.882816644807e-02
    39   -1.190765108453e-15
    40   -6.637553646310e-09
    41    1.940014214062e-02
    42   -2.826202752985e-15
    43    4.828505736042e-08
    44   -2.192931068389e-01
    45   -4.179378202934e-15
    46    7.125354889721e-17
    47   -6.499935460339e-10
    48    2.763965926028e-03
    49    1.536518192887e-15
    50    3.833773717706e-15
    51    7.287454942565e-15
    52   -7.844707070569e-08
    53    3.316955181321e-01
    54   -1.757945508523e-13
    55   -4.007686626139e-13
    56   -5.892272589660e-16
    57   -6.661064676117e-10
    58    2.486946400158e-03
    59    1.335384858079e-15
    60    3.163506440644e-15
    61    1.906848093620e-14
    62   -1.037640346292e-09
Sym=X
Ene= 2.672361
Spin=Alpha
Occup=0
     1    2.194055099296e-15
     2    7.467676980794e-15
     3   -5.558706083219e-14
     4    7.326100031390e-14
     5    2.761697363228e-15
     6    4.700282988890e-01
     7    7.068565837905e-09
     8   -6.144914027714e-14
     9   -8.532925525899e-01
    10   -5.899562429725e-09
    11    9.402672841920e-14
    12    1.039227772234e-01
    13   -7.240971645959e-09
    14   -1.192746345519e-14
    15    1.440017324349e-15
    16    4.480137169637e-02
    17    6.506508153575e-10
    18   -2.768076783615e-16
    19    1.205930643712e-16
    20    2.963122683274e-14
    21   -6.252394185662e-01
    22   -8.342268728026e-09
    23    1.980996343662e-16
    24   -7.029129029822e-16
    25   -4.740360842844e-15
    26    1.524347912546e-01
    27    2.056213174934e-09
    28    1.316524458237e-16
    29   -7.508587093812e-16
    30   -1.782150916396e-08
    31   -3.337701879294e-15
    32    9.531375903790e-16
    33    2.530078059643e-15
    34   -3.240008658598e-15
    35   -2.375664481793e-14
    36   -2.619527274535e-14
    37    6.530461504687e-02
    38    5.514125183748e-10
    39    1.549252537708e-15
    40   -5.518990950243e-02
    41   -7.472655410852e-10
    42    3.325443139512e-14
    43    3.974265214790e-01
    44    5.569133909025e-09
    45    9.451249220869e-15
    46    1.510272407898e-15
    47   -1.904097338469e-03
    48   -3.188157370296e-11
    49    7.153114397914e-17
    50    5.691425440473e-17
    51    1.967029714261e-14
    52   -1.023711720568e+00
    53   -1.414573965906e-08
    54    1.461630826259e-15
    55    8.279341279283e-16
    56    2.978840851211e-15
    57    3.009505022571e-03
    58    3.762100146366e-11
    59    7.918858257061e-18
    60   -1.936233729496e-16
    61    7.634738018109e-10
    62    6.505472993515e-15
[5D7F]

======= END OF MOLDEN-FORMATTED INPUT FILE =======


        *************************************************************
        *                                                           *
        *  Thank you very much for using Q-Chem.  Have a nice day.  *
        *                                                           *
        *************************************************************


