                  Welcome to Q-Chem
     A Quantum Leap Into The Future Of Chemistry


 Q-Chem 6.0 (devel), Q-Chem, Inc., Pleasanton, CA (2022)

 E. Epifanovsky,  A. T. B. Gilbert,  Xintian Feng,  Joonho Lee,  Yuezhi Mao,  
 N. Mardirossian,  P. Pokhilko,  A. White,  M. Wormit,  M. P. Coons,  
 A. L. Dempwolff,  Zhengting Gan,  D. Hait,  P. R. Horn,  L. D. Jacobson,  
 I. Kaliman,  J. Kussmann,  A. W. Lange,  Ka Un Lao,  D. S. Levine,  Jie Liu,  
 S. C. McKenzie,  A. F. Morrison,  K. Nanda,  F. Plasser,  D. R. Rehn,  
 M. L. Vidal,  Zhi-Qiang You,  Ying Zhu,  B. Alam,  B. Albrecht,  
 A. Aldossary,  E. Alguire,  J. H. Andersen,  V. Athavale,  D. Barton,  
 K. Begam,  A. Behn,  N. Bellonzi,  Y. A. Bernard,  E. J. Berquist,  
 H. Burton,  A. Carreras,  K. Carter-Fenk,  Romit Chakraborty,  
 Chandrima Chakravarty,  Junhan Chen,  A. D. Chien,  K. D. Closser,  
 V. Cofer-Shabica,  L. Cunha,  S. Dasgupta,  Jia Deng,  M. de Wergifosse,  
 M. Diedenhofen,  Hainam Do,  S. Ehlert,  Po-Tung Fang,  S. Fatehi,  
 Qingguo Feng,  T. Friedhoff,  B. Ganoe,  J. Gayvert,  Qinghui Ge,  
 G. Gidofalvi,  M. Goldey,  J. Gomes,  C. Gonzalez-Espinoza,  S. Gulania,  
 A. Gunina,  J. A. Gyamfi,  M. W. D. Hanson-Heine,  P. H. P. Harbach,  
 A. W. Hauser,  M. F. Herbst,  M. Hernandez Vera,  M. Hodecker,  
 Z. C. Holden,  S. Houck,  Xunkun Huang,  Kerwin Hui,  B. C. Huynh,  
 K. Ikeda,  M. Ivanov,  Hyunjun Ji,  Zuxin Jin,  Hanjie Jiang,  B. Kaduk,  
 S. Kaehler,  R. Kang,  K. Khistyaev,  Jaehoon Kim,  Yongbin Kim,  
 P. Klunzinger,  Z. Koczor-Benda,  Joong Hoon Koh,  D. Kosenkov,  
 Saikiran Kotaru,  L. Koulias,  T. Kowalczyk,  C. M. Krauter,  K. Kue,  
 A. Kunitsa,  T. Kus,  A. Landau,  K. V. Lawler,  D. Lefrancois,  S. Lehtola,  
 Rain Li,  Shaozhi Li,  Yi-Pei Li,  Jiashu Liang,  M. Liebenthal,  
 Hung-Hsuan Lin,  You-Sheng Lin,  Fenglai Liu,  Kuan-Yu Liu,  
 M. Loipersberger,  A. Luenser,  C. Malbon,  A. Manjanath,  P. Manohar,  
 E. Mansoor,  S. F. Manzer,  Shan-Ping Mao,  A. V. Marenich,  T. Markovich,  
 S. Mason,  F. Matz,  S. A. Maurer,  P. F. McLaughlin,  M. F. S. J. Menger,  
 J.-M. Mewes,  S. A. Mewes,  P. Morgante,  Mohammad Mostafanejad,  
 J. W. Mullinax,  K. J. Oosterbaan,  G. Paran,  V. Parravicini,  
 Alexander C. Paul,  Suranjan K. Paul,  F. Pavosevic,  Zheng Pei,  S. Prager,  
 E. I. Proynov,  E. Ramos,  B. Rana,  A. E. Rask,  A. Rettig,  R. M. Richard,  
 F. Rob,  E. Rossomme,  T. Scheele,  M. Scheurer,  M. Schneider,  
 P. E. Schneider,  N. Sergueev,  S. M. Sharada,  Hengyuan Shen,  
 W. Skomorowski,  D. W. Small,  C. J. Stein,  Yingli Su,  Yu-Chuan Su,  
 E. J. Sundstrom,  Zhen Tao,  J. Thirman,  Hung-Yi Tsai,  T. Tsuchimochi,  
 N. M. Tubman,  C. Utku,  S. P. Veccham,  O. Vydrov,  J. Wenzel,  
 Jonathan Wong,  J. Witte,  A. Yamada,  Chou-Hsun Yang,  Kun Yao,  
 S. Yeganeh,  S. R. Yost,  A. Zech,  F. Zeller,  Igor Ying Zhang,  
 Xing Zhang,  Yu Zhang,  D. Zuev,  A. Aspuru-Guzik,  A. T. Bell,  
 N. A. Besley,  K. B. Bravaya,  B. R. Brooks,  D. Casanova,  Jeng-Da Chai,  
 Hsing-Ta Chen,  S. Coriani,  C. J. Cramer,  A. E. DePrince, III,  
 R. A. DiStasio Jr.,  A. Dreuw,  B. D. Dunietz,  T. R. Furlani,  
 W. A. Goddard III,  S. Grimme,  S. Hammes-Schiffer,  T. Head-Gordon,  
 W. J. Hehre,  Chao-Ping Hsu,  T.-C. Jagau,  Yousung Jung,  A. Klamt,  
 Jing Kong,  D. S. Lambrecht,  Xiangyuan Li,  WanZhen Liang,  N. J. Mayhall,  
 C. W. McCurdy,  J. B. Neaton,  T. Neudecker,  C. Ochsenfeld,  
 J. A. Parkhill,  R. Peverati,  V. A. Rassolov,  Haisheng Ren,  Yihan Shao,  
 L. V. Slipchenko,  R. P. Steele,  J. E. Subotnik,  A. J. W. Thom,  
 A. Tkatchenko,  D. G. Truhlar,  T. Van Voorhis,  Fan Wang,  
 T. A. Wesolowski,  K. B. Whaley,  H. L. Woodcock III,  P. M. Zimmerman,  
 S. Faraji,  P. M. W. Gill,  M. Head-Gordon,  J. M. Herbert,  A. I. Krylov

 Contributors to earlier versions of Q-Chem not listed above: 
 R. D. Adamson,  B. Austin,  R. Baer,  J. Baker,  G. J. O. Beran,  
 K. Brandhorst,  S. T. Brown,  E. F. C. Byrd,  Arup K. Chakraborty,  
 G. K. L. Chan,  Chun-Min Chang,  Yunqing Chen,  C.-L. Cheng,  
 Siu Hung Chien,  D. M. Chipman,  D. L. Crittenden,  H. Dachsel,  
 R. J. Doerksen,  A. D. Dutoi,  R. G. Edgar,  J. Fosso-Tande,  
 L. Fusti-Molnar,  D. Ghosh,  A. Ghysels,  A. Golubeva-Zadorozhnaya,  
 J. Gonthier,  M. S. Gordon,  S. R. Gwaltney,  G. Hawkins,  J. E. Herr,  
 A. Heyden,  S. Hirata,  E. G. Hohenstein,  G. Kedziora,  F. J. Keil,  
 C. Kelley,  Jihan Kim,  R. A. King,  R. Z. Khaliullin,  P. P. Korambath,  
 W. Kurlancheek,  A. Laurent,  A. M. Lee,  M. S. Lee,  S. V. Levchenko,  
 Ching Yeh Lin,  D. Liotard,  E. Livshits,  R. C. Lochan,  I. Lotan,  
 L. A. Martinez-Martinez,  P. E. Maslen,  N. Nair,  D. P. O'Neill,  
 D. Neuhauser,  E. Neuscamman,  C. M. Oana,  R. Olivares-Amaya,  R. Olson,  
 T. M. Perrine,  B. Peters,  P. A. Pieniazek,  A. Prociuk,  Y. M. Rhee,  
 J. Ritchie,  M. A. Rohrdanz,  E. Rosta,  N. J. Russ,  H. F. Schaefer III,  
 M. W. Schmidt,  N. E. Schultz,  S. Sharma,  N. Shenvi,  C. D. Sherrill,  
 A. C. Simmonett,  A. Sodt,  T. Stein,  D. Stuck,  K. S. Thanthiriwatte,  
 V. Vanovschi,  L. Vogt,  Tao Wang,  A. Warshel,  M. A. Watson,  
 C. F. Williams,  Q. Wu,  X. Xu,  Jun Yang,  W. Zhang,  Yan Zhao

   Please cite Q-Chem as follows:
  "Software for the frontiers of quantum chemistry:
   An overview of developments in the Q-Chem 5 package"
   J. Chem. Phys. 155, 084801 (2021)
   https://doi.org/10.1063/5.0055522 (open access)

 Q-Chem 6.0.1 for Intel X86 EM64T Linux

 Parts of Q-Chem use Armadillo 9.900.5 (Nocturnal Misbehaviour).
 http://arma.sourceforge.net/

 Q-Chem begins on Wed Jun 14 18:51:22 2023  

 Host: atlas-181
0

     Scratch files written to ./qchem2142//
 Processing $rem in /scratch/abel/SOFTWARE/qchem/config/preferences:
 Processing $rem in /dipc/acebg/.qchemrc:

 Checking the input file for inconsistencies... 	...done.

--------------------------------------------------------------
User input:
--------------------------------------------------------------
$comment
 RAS-SF CALCULATION
$end

$molecule
 READ nh.molecule
$end

$rem
!**CALCULATION TYPE***     
JOBTYPE            sp    
EXCHANGE           HF
CORRELATION        RASCI    !RASCI=Casanova; RASCI2=Zimmerman
BASIS              def2-TZVP

!***SCF REFERENCE***
!SKIP_SCFMAN        FALSE
UNRESTRICTED       FALSE
!SCF_GUESS          core
!SCF_GUESS_MIX      FALSE
!SCF_GUESS_ALWAYS   FALSE
MAX_SCF_CYCLES     500
!SCF_CONVERGENCE    8
!SCF_ALGORITHM      DIIS !DIIS,DM,DIIS_DM,GDM,DIIS_GDM,GD

!SYMMETRY           TRUE !use of symmetry for calculating integrals
!SYM_IGNORE         FALSE !turn off using symmetry
!SYM_TOL            5 !tolerance for determining point group

!THRESH             14
SCF_FINAL_PRINT     3 !0,1,2,3

!****RAS-SF****
RAS_ROOTS          20       !number of RAS-CI roots to be computed
SET_ITER           150     !number of iterations in RASCI
RAS_ELEC           8       !number of electrons in RAS2
!RAS_ELEC_ALPHA     5       !spin-α electrons in RAS2 
!RAS_ELEC_BETA      3      !spin-β electrons in RAS2

RAS_ACT            7       !number of orbitals in RAS2 
RAS_ACT_ORB   [1, 2, 3, 4, 5, 6, 7]  !user-selected RAS2 orbitals
RAS_OCC            0       !number of orbitals in RAS1
N_FROZEN_CORE      0     !Number of frozen core orbitals
N_FROZEN_VIRTUAL   0      !Number of frozen virtual orbitals
RAS_NATORB         TRUE    !computation of the natural orbital occupancies
!RAS_NATORB_STATE  0      !Saves NO of i RAS computed state in .fchk ﬁle

RAS_DO_HOLE        TRUE   !presence of hole excitations in RAS-CI wave function
RAS_DO_PART        TRUE   !presence of particle excitations
RAS_AMPL_PRINT     10     !threshold (×10 2 ) for the CI amplitudes

RAS_GUESS_CS       0      !number of closed shell guess conﬁgurations
RAS_SPIN_MULT      3      !spin multiplicity: 0=any, 2n+1=defined 
RAS_SRDFT          FALSE  !short-range density functional RAS-CI
RAS_NFRAG          0     !fragments of excitation analysis in RASCI

RAS_PRINT          2      !level of information
RAS_NATORB         TRUE   !computation of the natural orbital occupancies
!RAS_NATORB_STATE  0      !Saves NO of i RAS computed state in .fchk ﬁle
RAS_FOD            TRUE

!****RAS-SOC****
CALC_SOC           TRUE   !calculate SOC for EOM-CC, RAS-CI, ADC, TDDFT/TDA and TDDFT
!RAS_SOC_2E        TRUE   !two-electron mean-ﬁeld contribution, default=true
RAS_SOC_SYM_DENS   TRUE   !averaging of α and β densities

!****MEMORY****
MEM_TOTAL          60000 !Default 2000 MB
MEM_STATIC         16000  !Default 64 MB

!**Molecular Properties and Analysis **                                                                                          
GUI                2
STATE_ANALYSIS     TRUE
MOLDEN_FORMAT      TRUE
PRINT_ORBITALS     20
$end                                           

--------------------------------------------------------------
 ----------------------------------------------------------------
             Standard Nuclear Orientation (Angstroms)
    I     Atom           X                Y                Z
 ----------------------------------------------------------------
    1      N       0.0000000000     0.0000000000    -0.1295250000
    2      H       0.0000000000     0.0000000000     0.9066750000
 ----------------------------------------------------------------
 Molecular Point Group                 C2v   NOp =  4
 Largest Abelian Subgroup              C2v   NOp =  4
 Nuclear Repulsion Energy =           3.57483157 hartrees
 There are        5 alpha and        3 beta electrons
 Requested basis set is def2-TZVP
 There are 15 shells and 37 basis functions

 Q-Chem warning in module libmdc/get_mega.C, line 167:

 Allowed MEM_STATIC has been capped at MEM_STATIC=8191.
 Reduce the value of MEM_STATIC to silence this warning.


 Total QAlloc Memory Limit  60000 MB
 Mega-Array Size      8007 MB
 MEM_STATIC part      8191 MB


                       Distance Matrix (Angstroms)
             N (  1)
   H (  2)  1.036200
 
 A cutoff of  1.0D-09 yielded    120 shell pairs
 There are       756 function pairs (       990 Cartesian)
 Smallest overlap matrix eigenvalue = 7.92E-03

 Scale SEOQF with 1.000000e+00/1.000000e+00/1.000000e+00

 Standard Electronic Orientation quadrupole field applied
 Nucleus-field energy     =    -0.0000000010 hartrees
 Guess from superposition of atomic densities
 Warning:  Energy on first SCF cycle will be non-variational
 SAD guess density has 8.000000 electrons

 -----------------------------------------------------------------------
  General SCF calculation program by
  Eric Jon Sundstrom, Paul Horn, Yuezhi Mao, Dmitri Zuev, Alec White,
  David Stuck, Shaama M.S., Shane Yost, Joonho Lee, David Small,
  Daniel Levine, Susi Lehtola, Hugh Burton, Evgeny Epifanovsky,
  Bang C. Huynh
 -----------------------------------------------------------------------
 Hartree-Fock
 Orthonormalizing orbitals
 A restricted open-shell SCF calculation will be
 performed using GDM
 SCF converges when RMS gradient is below 1.0e-05
 ---------------------------------------
  Cycle       Energy        RMS Gradient
 ---------------------------------------
    1     -54.8699534210      2.12e-01   Descent step
    2     -54.9645825002      7.24e-02   Normal BFGS step
    3     -54.9749076107      7.32e-03   Normal BFGS step
    4     -54.9750500706      2.21e-03   Normal BFGS step
    5     -54.9750598361      3.02e-04   Normal BFGS step
    6     -54.9750600368      6.25e-05   Normal BFGS step
    7     -54.9750600525      2.84e-05   Normal BFGS step
    8     -54.9750600548      7.66e-06  Convergence criterion met
The disked orbital energies are calculated using alpha and beta Focks
 ---------------------------------------
 Alpha HF Exchange    Energy =  -4.00407646764089
 Beta HF Exchange     Energy =  -2.91824793559960
 Nuclear Attraction   Energy =   0.00000000000000
 One-Electron (alpha) Energy = -46.02191488198883
 One-Electron (beta)  Energy = -35.60130795758232
 Total Coulomb        Energy =  29.99565561637418
 Final Alpha MO Eigenvalues
            1           2           3           4           5           6
    1 -15.6370037  -1.1538936  -0.5926885  -0.5374489  -0.5374489   0.1438757
            7           8           9          10          11          12
    1   0.4341770   0.4563987   0.4563987   0.4767601   0.6361650   1.1444744
           13          14          15          16          17          18
    1   1.1444744   1.1977205   1.1977205   1.4711100   2.1048374   2.1048374
           19          20          21          22          23          24
    1   2.1980373   2.2468561   2.3610511   2.3610511   2.7057604   3.1922197
           25          26          27          28          29          30
    1   4.2012999   4.2012999   4.1947019   4.1947019   4.5391584   4.5391584
           31          32          33          34          35          36
    1   4.7772054   4.7772054   4.9115018   4.9115018   5.1102651   5.7963178
           37
    1  32.4905269
 Final Beta MO Eigenvalues
            1           2           3           4           5           6
    1 -15.5822329  -0.9289304  -0.5069134   0.1828706   0.1828706   0.1567547
            7           8           9          10          11          12
    1   0.4629832   0.5347373   0.5347373   0.5058087   0.6681778   1.2199018
           13          14          15          16          17          18
    1   1.2199018   1.3364970   1.3364970   1.5160047   2.1427876   2.1427876
           19          20          21          22          23          24
    1   2.2508996   2.2792157   2.4846002   2.4846002   2.7363297   3.2206019
           25          26          27          28          29          30
    1   4.2738924   4.2738924   4.2957214   4.2957214   4.5995384   4.5995384
           31          32          33          34          35          36
    1   4.9324800   4.9324800   4.9897643   4.9897643   5.1715899   5.8267964
           37
    1  32.5228101
 Final Alpha MO Coefficients
            1           2           3           4           5           6
    1   0.4491545  -0.0952884   0.0417018   0.0000000   0.0000000   0.0244925
    2   0.6307290  -0.2238429   0.0994032   0.0000000   0.0000000   0.0616408
    3   0.0188419   0.3413980  -0.1631019  -0.0000000  -0.0000000  -0.1636387
    4  -0.0077746   0.4529549  -0.2378218   0.0000000   0.0000000   0.1423055
    5   0.0033506   0.1357977  -0.2271705  -0.0000000  -0.0000000  -1.3948956
    6  -0.0000000  -0.0000000   0.0000000  -0.0000016   0.4704635  -0.0000000
    7   0.0000000   0.0000000  -0.0000000   0.4704635   0.0000016  -0.0000000
    8   0.0018910   0.0877087   0.3522183  -0.0000000  -0.0000000  -0.1619055
    9   0.0000000   0.0000000   0.0000000  -0.0000015   0.4489670  -0.0000000
   10  -0.0000000  -0.0000000  -0.0000000   0.4489670   0.0000015  -0.0000000
   11  -0.0015542   0.0789251   0.3046831   0.0000000   0.0000000   0.0272641
   12  -0.0000000  -0.0000000   0.0000000  -0.0000009   0.2663921  -0.0000000
   13   0.0000000   0.0000000   0.0000000   0.2663921   0.0000009  -0.0000000
   14   0.0009802   0.0113506   0.1610523  -0.0000000  -0.0000000  -0.7402874
   15   0.0000000   0.0000000   0.0000000   0.0000000   0.0000000   0.0000000
   16  -0.0000000  -0.0000000   0.0000000   0.0053466   0.0000000  -0.0000000
   17   0.0001703   0.0088306   0.0135797   0.0000000   0.0000000   0.0025499
   18   0.0000000   0.0000000   0.0000000  -0.0000000   0.0053466  -0.0000000
   19   0.0000000   0.0000000  -0.0000000  -0.0000000   0.0000000   0.0000000
   20   0.0000000   0.0000000   0.0000000  -0.0000000   0.0000000  -0.0000000
   21   0.0000000   0.0000000  -0.0000000   0.0273653   0.0000001  -0.0000000
   22  -0.0001614   0.0150008   0.0252420   0.0000000   0.0000000   0.0422979
   23   0.0000000  -0.0000000  -0.0000000  -0.0000001   0.0273653  -0.0000000
   24   0.0000000  -0.0000000   0.0000000   0.0000000   0.0000000  -0.0000000
   25  -0.0000000  -0.0000000  -0.0000000  -0.0000000  -0.0000000   0.0000000
   26   0.0000000   0.0000000   0.0000000   0.0000000   0.0000000  -0.0000000
   27  -0.0000000  -0.0000000   0.0000000  -0.0016700  -0.0000000   0.0000000
   28   0.0000093   0.0041633   0.0025378   0.0000000   0.0000000   0.0104088
   29  -0.0000000  -0.0000000   0.0000000   0.0000000  -0.0016700   0.0000000
   30   0.0000000  -0.0000000  -0.0000000  -0.0000000  -0.0000000   0.0000000
   31   0.0000000   0.0000000  -0.0000000   0.0000000  -0.0000000   0.0000000
   32   0.0002810   0.1233913   0.1441804   0.0000000   0.0000000   0.0261930
   33   0.0008492   0.1379302   0.2469196  -0.0000000  -0.0000000  -0.2692479
   34  -0.0014376   0.0178087   0.0988818   0.0000000   0.0000000   2.2897595
   35  -0.0000000  -0.0000000   0.0000000  -0.0000001   0.0174726   0.0000000
   36  -0.0000000  -0.0000000  -0.0000000   0.0174726   0.0000001  -0.0000000
   37  -0.0001192  -0.0239119  -0.0197389   0.0000000   0.0000000   0.0791453
            7           8           9          10          11          12
    1   0.0458476   0.0000000   0.0000000   0.0038430   0.0333167  -0.0000000
    2   0.0898337  -0.0000000   0.0000000   0.0028808   0.0708184  -0.0000000
    3   0.1700243   0.0000000   0.0000000   0.0350509   0.1036216   0.0000000
    4  -1.9551905  -0.0000000  -0.0000000  -0.4971977  -1.6054620  -0.0000000
    5   2.4055268   0.0000000   0.0000000   2.3525604   2.5970612   0.0000000
    6   0.0000000   0.0000000  -0.2368753   0.0000000   0.0000000  -0.0000009
    7  -0.0000000  -0.2368753  -0.0000000   0.0000000   0.0000000  -0.0545556
    8   0.1234120   0.0000000   0.0000000   0.0624724  -0.2989356  -0.0000000
    9   0.0000000   0.0000001  -0.7786957   0.0000000  -0.0000000  -0.0000003
   10  -0.0000000  -0.7786957  -0.0000001   0.0000000   0.0000000  -0.0216166
   11   0.2735334   0.0000000   0.0000000   0.2725701  -1.0291441   0.0000000
   12  -0.0000000  -0.0000001   1.3076821  -0.0000000   0.0000000  -0.0000010
   13   0.0000000   1.3076821   0.0000001  -0.0000000   0.0000000  -0.0615118
   14  -0.4595133   0.0000000   0.0000000   1.6788889   1.5682745   0.0000000
   15  -0.0000000   0.0000000  -0.0000000  -0.0000000  -0.0000000   0.0000000
   16  -0.0000000  -0.0070400  -0.0000000   0.0000000   0.0000000  -0.0144357
   17   0.0083574  -0.0000000  -0.0000000  -0.0335676  -0.0028648   0.0000000
   18   0.0000000   0.0000000  -0.0070400   0.0000000  -0.0000000  -0.0000002
   19   0.0000000  -0.0000000   0.0000000   0.0000000   0.0000000   0.0000000
   20  -0.0000000   0.0000000   0.0000000   0.0000000  -0.0000000  -0.0000000
   21   0.0000000   0.0084733   0.0000000  -0.0000000  -0.0000000   0.8597934
   22  -0.0415166   0.0000000   0.0000000   0.1792135  -0.0381779   0.0000000
   23  -0.0000000  -0.0000000   0.0084733  -0.0000000   0.0000000   0.0000135
   24  -0.0000000   0.0000000  -0.0000000  -0.0000000  -0.0000000  -0.0000000
   25   0.0000000   0.0000000  -0.0000000  -0.0000000   0.0000000   0.0000000
   26   0.0000000  -0.0000000   0.0000000   0.0000000   0.0000000   0.0000000
   27  -0.0000000   0.0013387   0.0000000  -0.0000000   0.0000000   0.0055128
   28  -0.0088632   0.0000000   0.0000000   0.0302159  -0.0156233   0.0000000
   29   0.0000000  -0.0000000   0.0013387  -0.0000000  -0.0000000   0.0000001
   30  -0.0000000  -0.0000000  -0.0000000  -0.0000000   0.0000000   0.0000000
   31  -0.0000000  -0.0000000   0.0000000   0.0000000  -0.0000000  -0.0000000
   32   0.0343653  -0.0000000  -0.0000000  -0.0862553   0.0910919   0.0000000
   33   0.3813376  -0.0000000  -0.0000000  -2.0018466   1.0311380  -0.0000000
   34  -0.9289735  -0.0000000  -0.0000000  -0.6540462  -2.3352629  -0.0000000
   35   0.0000000   0.0000000  -0.0090588   0.0000000   0.0000000   0.0000039
   36  -0.0000000  -0.0090588  -0.0000000   0.0000000  -0.0000000   0.2500113
   37  -0.0476521   0.0000000   0.0000000   0.1409909  -0.0628551   0.0000000
           13          14          15          16          17          18
    1  -0.0000000   0.0000000  -0.0000000   0.0000963  -0.0000000  -0.0000000
    2  -0.0000000   0.0000000  -0.0000000  -0.0045673  -0.0000000  -0.0000000
    3   0.0000000  -0.0000000   0.0000000   0.2638082  -0.0000000   0.0000000
    4  -0.0000000   0.0000000  -0.0000000  -0.9168441   0.0000000  -0.0000000
    5  -0.0000000  -0.0000000   0.0000000  -1.0253454  -0.0000000   0.0000000
    6  -0.0545556   0.0000000  -0.0000000  -0.0000000   0.0000207  -0.4285616
    7   0.0000009   0.0000000   0.0000000   0.0000000  -0.4285616  -0.0000207
    8   0.0000000   0.0000000  -0.0000000   0.0738565  -0.0000000   0.0000000
    9  -0.0216166   0.0000000  -0.0000000   0.0000000  -0.0000163   0.3363154
   10   0.0000003  -0.0000000   0.0000000  -0.0000000   0.3363154   0.0000163
   11  -0.0000000  -0.0000000   0.0000000  -0.8997801   0.0000000  -0.0000000
   12  -0.0615118  -0.0000000   0.0000000  -0.0000000   0.0000181  -0.3747914
   13   0.0000010   0.0000000  -0.0000000   0.0000000  -0.3747914  -0.0000181
   14  -0.0000000  -0.0000000   0.0000000  -0.9875012  -0.0000000   0.0000000
   15  -0.0000000  -0.0223995  -0.0000007   0.0000000   0.0000000  -0.0000000
   16   0.0000002  -0.0000000  -0.0000000  -0.0000000   0.0223470   0.0000011
   17  -0.0000000   0.0000000  -0.0000000   0.0132084   0.0000000  -0.0000000
   18  -0.0144357   0.0000000   0.0000000   0.0000000  -0.0000011   0.0223470
   19  -0.0000000   0.0000007  -0.0223995  -0.0000000  -0.0000000   0.0000000
   20   0.0000000   1.0114006   0.0000317  -0.0000000   0.0000000   0.0000000
   21  -0.0000135   0.0000000   0.0000000   0.0000000  -0.7628355  -0.0000369
   22  -0.0000000  -0.0000000   0.0000000  -1.5971610  -0.0000000  -0.0000000
   23   0.8597934  -0.0000000  -0.0000000  -0.0000000   0.0000369  -0.7628355
   24   0.0000000  -0.0000317   1.0114006   0.0000000   0.0000000  -0.0000000
   25  -0.0000000   0.0000000   0.0000000   0.0000000  -0.0000000   0.0000000
   26  -0.0000000   0.0119409   0.0000004   0.0000000   0.0000000   0.0000000
   27  -0.0000001  -0.0000000   0.0000000  -0.0000000   0.0207771   0.0000010
   28  -0.0000000  -0.0000000   0.0000000  -0.1101293   0.0000000  -0.0000000
   29   0.0055128  -0.0000000   0.0000000  -0.0000000  -0.0000010   0.0207771
   30  -0.0000000  -0.0000004   0.0119409   0.0000000   0.0000000   0.0000000
   31   0.0000000   0.0000000  -0.0000000   0.0000000   0.0000000  -0.0000000
   32  -0.0000000  -0.0000000   0.0000000  -0.2496940   0.0000000  -0.0000000
   33   0.0000000   0.0000000  -0.0000000   3.0220319  -0.0000000   0.0000000
   34   0.0000000   0.0000000  -0.0000000  -0.1663528   0.0000000  -0.0000000
   35   0.2500113  -0.0000000   0.0000000   0.0000000  -0.0000530   1.0963906
   36  -0.0000039  -0.0000000  -0.0000000  -0.0000000   1.0963906   0.0000530
   37  -0.0000000  -0.0000000   0.0000000  -0.4742233   0.0000000  -0.0000000
           19          20          21          22          23          24
    1   0.1069714  -0.0600852   0.0000000   0.0000000   0.0390566  -0.0003630
    2   0.3715395  -0.2090468   0.0000000   0.0000000   0.1328116   0.0243678
    3  -2.7727888   1.1709334  -0.0000000  -0.0000000  -0.6191298  -1.0184025
    4   4.8627590  -0.7585208   0.0000000  -0.0000000  -0.0480767   3.3653609
    5  -2.4888211   0.4733129  -0.0000000   0.0000000  -0.9988538  -0.4532392
    6  -0.0000000  -0.0000000  -0.0000065  -1.1811399   0.0000000  -0.0000000
    7   0.0000000   0.0000000  -1.1811399   0.0000065   0.0000000   0.0000000
    8  -0.2195139  -0.8723492  -0.0000000   0.0000000  -0.8822993  -0.3123296
    9   0.0000000   0.0000000   0.0000091   1.6435476   0.0000000   0.0000000
   10  -0.0000000  -0.0000000   1.6435476  -0.0000091  -0.0000000  -0.0000000
   11   1.2178382   1.7949440   0.0000000  -0.0000000   0.1424037   2.7661793
   12  -0.0000000  -0.0000000  -0.0000034  -0.6123684   0.0000000  -0.0000000
   13   0.0000000   0.0000000  -0.6123684   0.0000034   0.0000000  -0.0000000
   14  -0.4727546  -0.4428973  -0.0000000   0.0000000  -0.8535571  -0.1214601
   15  -0.0000000   0.0000000   0.0000000  -0.0000000  -0.0000000  -0.0000000
   16  -0.0000000  -0.0000000  -0.0170680   0.0000001  -0.0000000   0.0000000
   17   0.0185432   0.0166811  -0.0000000  -0.0000000  -0.0058860  -0.1702076
   18   0.0000000   0.0000000  -0.0000001  -0.0170680  -0.0000000  -0.0000000
   19   0.0000000  -0.0000000  -0.0000000   0.0000000   0.0000000  -0.0000000
   20   0.0000000  -0.0000000   0.0000000   0.0000000   0.0000000   0.0000000
   21   0.0000000   0.0000000   0.3008471  -0.0000017   0.0000000  -0.0000000
   22   0.1892757   0.1166513   0.0000000  -0.0000000  -0.3528392   1.5585915
   23  -0.0000000  -0.0000000   0.0000017   0.3008471   0.0000000   0.0000000
   24   0.0000000  -0.0000000   0.0000000  -0.0000000   0.0000000  -0.0000000
   25  -0.0000000  -0.0000000  -0.0000000  -0.0000000   0.0000000   0.0000000
   26  -0.0000000   0.0000000   0.0000000  -0.0000000   0.0000000   0.0000000
   27  -0.0000000  -0.0000000  -0.0303436   0.0000002   0.0000000  -0.0000000
   28   0.1422416   0.1401072   0.0000000  -0.0000000  -0.2453435  -0.1347660
   29   0.0000000  -0.0000000  -0.0000002  -0.0303436   0.0000000  -0.0000000
   30   0.0000000  -0.0000000   0.0000000   0.0000000  -0.0000000  -0.0000000
   31  -0.0000000   0.0000000  -0.0000000  -0.0000000  -0.0000000   0.0000000
   32   0.5723294   0.6216127   0.0000000  -0.0000000  -0.5715297  -0.8575015
   33  -2.0989754  -1.7518388  -0.0000000   0.0000000   1.8823393  -2.7703360
   34   1.4316677   0.5768484   0.0000000  -0.0000000   0.2558162   0.5597364
   35   0.0000000   0.0000000  -0.0000027  -0.4964442  -0.0000000  -0.0000000
   36  -0.0000000  -0.0000000  -0.4964442   0.0000027   0.0000000   0.0000000
   37   0.6854337   0.6269838   0.0000000  -0.0000000  -1.1730267   1.9772092
           25          26          27          28          29          30
    1  -0.0000000   0.0000000   0.0000000   0.0000000   0.0000000  -0.0000000
    2  -0.0000000   0.0000000   0.0000000   0.0000000  -0.0000000  -0.0000000
    3   0.0000000  -0.0000000  -0.0000000   0.0000000  -0.0000000  -0.0000000
    4  -0.0000000   0.0000000   0.0000000  -0.0000000   0.0000000   0.0000000
    5   0.0000000  -0.0000000  -0.0000000  -0.0000000  -0.0000000   0.0000000
    6   0.0000000   0.0000000  -0.0000000  -0.0000000   0.0000010  -0.0607050
    7   0.0000000   0.0000000   0.0000000  -0.0000000  -0.0607050  -0.0000010
    8   0.0000000  -0.0000000  -0.0000000  -0.0000000  -0.0000000  -0.0000000
    9  -0.0000000  -0.0000000   0.0000000   0.0000000  -0.0000026   0.1648002
   10  -0.0000000   0.0000000  -0.0000000   0.0000000   0.1648002   0.0000026
   11  -0.0000000   0.0000000  -0.0000000  -0.0000000   0.0000000   0.0000000
   12   0.0000000  -0.0000000  -0.0000000  -0.0000000  -0.0000004   0.0246444
   13   0.0000000   0.0000000   0.0000000  -0.0000000   0.0246444   0.0000004
   14   0.0000000  -0.0000000  -0.0000000   0.0000000  -0.0000000   0.0000000
   15   0.0376121   0.0000134  -0.0000000  -0.0000000   0.0000000  -0.0000000
   16   0.0000000   0.0000000  -0.0000000   0.0000000   0.4793226   0.0000075
   17   0.0000000  -0.0000000   0.0000000   0.0000000  -0.0000000  -0.0000000
   18  -0.0000000  -0.0000000   0.0000000   0.0000000  -0.0000075   0.4793226
   19  -0.0000134   0.0376121   0.0000000  -0.0000000   0.0000000  -0.0000000
   20  -0.0308928  -0.0000110   0.0000000   0.0000000  -0.0000000   0.0000000
   21  -0.0000000  -0.0000000  -0.0000000   0.0000000  -0.0169549  -0.0000003
   22  -0.0000000   0.0000000  -0.0000000  -0.0000000   0.0000000   0.0000000
   23   0.0000000  -0.0000000   0.0000000   0.0000000   0.0000003  -0.0169549
   24   0.0000110  -0.0308928  -0.0000000   0.0000000  -0.0000000   0.0000000
   25   0.0000000   0.0000000  -0.2913782   0.9566079  -0.0000000   0.0000000
   26   0.9994198   0.0003572  -0.0000000  -0.0000000  -0.0000000   0.0000000
   27  -0.0000000   0.0000000  -0.0000000   0.0000000   0.9683069   0.0000153
   28  -0.0000000   0.0000000  -0.0000000  -0.0000000   0.0000000   0.0000000
   29  -0.0000000  -0.0000000   0.0000000   0.0000000  -0.0000153   0.9683069
   30  -0.0003572   0.9994198   0.0000000  -0.0000000  -0.0000000   0.0000000
   31   0.0000000  -0.0000000   0.9566079   0.2913782   0.0000000  -0.0000000
   32   0.0000000  -0.0000000   0.0000000   0.0000000  -0.0000000  -0.0000000
   33   0.0000000  -0.0000000   0.0000000   0.0000000  -0.0000000  -0.0000000
   34  -0.0000000   0.0000000   0.0000000   0.0000000   0.0000000  -0.0000000
   35  -0.0000000   0.0000000  -0.0000000  -0.0000000   0.0000071  -0.4511671
   36  -0.0000000  -0.0000000   0.0000000  -0.0000000  -0.4511671  -0.0000071
   37  -0.0000000   0.0000000  -0.0000000  -0.0000000   0.0000000   0.0000000
           31          32          33          34          35          36
    1  -0.0000000   0.0000000   0.0000000   0.0000000  -0.0032969   0.0067676
    2  -0.0000000   0.0000000   0.0000000   0.0000000  -0.0083224   0.0400224
    3   0.0000000  -0.0000000   0.0000000  -0.0000000  -0.0222845  -1.1191024
    4   0.0000000   0.0000000  -0.0000000   0.0000000   0.3697334   3.2467712
    5  -0.0000000  -0.0000000  -0.0000000  -0.0000000  -0.5389796  -0.4052623
    6   0.0000000  -0.0000000  -0.0000003   0.0283917  -0.0000000   0.0000000
    7  -0.0000000   0.0000000   0.0283917   0.0000003  -0.0000000  -0.0000000
    8   0.0000000  -0.0000000  -0.0000000  -0.0000000   0.0394403  -0.3562173
    9  -0.0000000   0.0000000   0.0000011  -0.1200943   0.0000000  -0.0000000
   10   0.0000000  -0.0000000  -0.1200943  -0.0000011   0.0000000   0.0000000
   11   0.0000000   0.0000000  -0.0000000   0.0000000   0.1566520   2.6461107
   12   0.0000000  -0.0000000   0.0000002  -0.0220774   0.0000000   0.0000000
   13   0.0000000  -0.0000000  -0.0220774  -0.0000002  -0.0000000  -0.0000000
   14  -0.0000000  -0.0000000  -0.0000000  -0.0000000  -0.3618395  -0.0523556
   15  -0.0000051   1.1701800  -0.0000000  -0.0000000  -0.0000000  -0.0000000
   16  -0.0000000   0.0000000   1.0789294   0.0000103  -0.0000000   0.0000000
   17   0.0000000   0.0000000   0.0000000   0.0000000   1.2060442   0.1425845
   18   0.0000000   0.0000000  -0.0000103   1.0789294  -0.0000000  -0.0000000
   19   1.1701800   0.0000051   0.0000000  -0.0000000  -0.0000000   0.0000000
   20   0.0000025  -0.5893658   0.0000000   0.0000000   0.0000000   0.0000000
   21   0.0000000  -0.0000000  -0.7298451  -0.0000070   0.0000000  -0.0000000
   22  -0.0000000   0.0000000  -0.0000000  -0.0000000  -0.7138460   1.4946789
   23  -0.0000000  -0.0000000   0.0000070  -0.7298451   0.0000000   0.0000000
   24  -0.5893658  -0.0000025  -0.0000000   0.0000000   0.0000000  -0.0000000
   25   0.0000000   0.0000000   0.0000000   0.0000000  -0.0000000   0.0000000
   26   0.0000001  -0.0318949  -0.0000000   0.0000000   0.0000000   0.0000000
   27   0.0000000  -0.0000000  -0.4916237  -0.0000047   0.0000000  -0.0000000
   28  -0.0000000   0.0000000  -0.0000000  -0.0000000  -0.1935337   1.2819346
   29   0.0000000  -0.0000000   0.0000047  -0.4916237   0.0000000   0.0000000
   30  -0.0318949  -0.0000001  -0.0000000  -0.0000000   0.0000000  -0.0000000
   31  -0.0000000  -0.0000000   0.0000000   0.0000000  -0.0000000   0.0000000
   32   0.0000000  -0.0000000   0.0000000  -0.0000000   0.0914046  -1.4273964
   33   0.0000000  -0.0000000   0.0000000   0.0000000   0.1484073  -2.3539694
   34   0.0000000   0.0000000   0.0000000   0.0000000   0.2333899   0.4924231
   35  -0.0000000   0.0000000  -0.0000035   0.3670413  -0.0000000  -0.0000000
   36  -0.0000000   0.0000000   0.3670413   0.0000035  -0.0000000   0.0000000
   37   0.0000000   0.0000000  -0.0000000   0.0000000   0.3262630   1.6801381
           37
    1  -1.3847578
    2   1.6748414
    3  -1.4116310
    4   1.3763995
    5  -0.6822418
    6   0.0000000
    7   0.0000000
    8  -0.0295111
    9  -0.0000000
   10   0.0000000
   11   0.1279035
   12   0.0000000
   13  -0.0000000
   14  -0.1133890
   15   0.0000000
   16   0.0000000
   17  -0.0059082
   18   0.0000000
   19  -0.0000000
   20   0.0000000
   21   0.0000000
   22   0.0490132
   23   0.0000000
   24   0.0000000
   25   0.0000000
   26  -0.0000000
   27   0.0000000
   28   0.0208771
   29  -0.0000000
   30   0.0000000
   31  -0.0000000
   32  -0.0373131
   33  -0.1327096
   34   0.2596996
   35  -0.0000000
   36  -0.0000000
   37   0.0212245
 Final Beta MO Coefficients
            1           2           3           4           5           6
    1   0.4491545  -0.0952884   0.0417018   0.0000000   0.0000000   0.0244925
    2   0.6307290  -0.2238429   0.0994032   0.0000000   0.0000000   0.0616408
    3   0.0188419   0.3413980  -0.1631019  -0.0000000  -0.0000000  -0.1636387
    4  -0.0077746   0.4529549  -0.2378218   0.0000000   0.0000000   0.1423055
    5   0.0033506   0.1357977  -0.2271705  -0.0000000  -0.0000000  -1.3948956
    6  -0.0000000  -0.0000000   0.0000000  -0.0000016   0.4704635  -0.0000000
    7   0.0000000   0.0000000  -0.0000000   0.4704635   0.0000016  -0.0000000
    8   0.0018910   0.0877087   0.3522183  -0.0000000  -0.0000000  -0.1619055
    9   0.0000000   0.0000000   0.0000000  -0.0000015   0.4489670  -0.0000000
   10  -0.0000000  -0.0000000  -0.0000000   0.4489670   0.0000015  -0.0000000
   11  -0.0015542   0.0789251   0.3046831   0.0000000   0.0000000   0.0272641
   12  -0.0000000  -0.0000000   0.0000000  -0.0000009   0.2663921  -0.0000000
   13   0.0000000   0.0000000   0.0000000   0.2663921   0.0000009  -0.0000000
   14   0.0009802   0.0113506   0.1610523  -0.0000000  -0.0000000  -0.7402874
   15   0.0000000   0.0000000   0.0000000   0.0000000   0.0000000   0.0000000
   16  -0.0000000  -0.0000000   0.0000000   0.0053466   0.0000000  -0.0000000
   17   0.0001703   0.0088306   0.0135797   0.0000000   0.0000000   0.0025499
   18   0.0000000   0.0000000   0.0000000  -0.0000000   0.0053466  -0.0000000
   19   0.0000000   0.0000000  -0.0000000  -0.0000000   0.0000000   0.0000000
   20   0.0000000   0.0000000   0.0000000  -0.0000000   0.0000000  -0.0000000
   21   0.0000000   0.0000000  -0.0000000   0.0273653   0.0000001  -0.0000000
   22  -0.0001614   0.0150008   0.0252420   0.0000000   0.0000000   0.0422979
   23   0.0000000  -0.0000000  -0.0000000  -0.0000001   0.0273653  -0.0000000
   24   0.0000000  -0.0000000   0.0000000   0.0000000   0.0000000  -0.0000000
   25  -0.0000000  -0.0000000  -0.0000000  -0.0000000  -0.0000000   0.0000000
   26   0.0000000   0.0000000   0.0000000   0.0000000   0.0000000  -0.0000000
   27  -0.0000000  -0.0000000   0.0000000  -0.0016700  -0.0000000   0.0000000
   28   0.0000093   0.0041633   0.0025378   0.0000000   0.0000000   0.0104088
   29  -0.0000000  -0.0000000   0.0000000   0.0000000  -0.0016700   0.0000000
   30   0.0000000  -0.0000000  -0.0000000  -0.0000000  -0.0000000   0.0000000
   31   0.0000000   0.0000000  -0.0000000   0.0000000  -0.0000000   0.0000000
   32   0.0002810   0.1233913   0.1441804   0.0000000   0.0000000   0.0261930
   33   0.0008492   0.1379302   0.2469196  -0.0000000  -0.0000000  -0.2692479
   34  -0.0014376   0.0178087   0.0988818   0.0000000   0.0000000   2.2897595
   35  -0.0000000  -0.0000000   0.0000000  -0.0000001   0.0174726   0.0000000
   36  -0.0000000  -0.0000000  -0.0000000   0.0174726   0.0000001  -0.0000000
   37  -0.0001192  -0.0239119  -0.0197389   0.0000000   0.0000000   0.0791453
            7           8           9          10          11          12
    1   0.0458476   0.0000000   0.0000000   0.0038430   0.0333167  -0.0000000
    2   0.0898337  -0.0000000   0.0000000   0.0028808   0.0708184  -0.0000000
    3   0.1700243   0.0000000   0.0000000   0.0350509   0.1036216   0.0000000
    4  -1.9551905  -0.0000000  -0.0000000  -0.4971977  -1.6054620  -0.0000000
    5   2.4055268   0.0000000   0.0000000   2.3525604   2.5970612   0.0000000
    6   0.0000000   0.0000000  -0.2368753   0.0000000   0.0000000  -0.0000009
    7  -0.0000000  -0.2368753  -0.0000000   0.0000000   0.0000000  -0.0545556
    8   0.1234120   0.0000000   0.0000000   0.0624724  -0.2989356  -0.0000000
    9   0.0000000   0.0000001  -0.7786957   0.0000000  -0.0000000  -0.0000003
   10  -0.0000000  -0.7786957  -0.0000001   0.0000000   0.0000000  -0.0216166
   11   0.2735334   0.0000000   0.0000000   0.2725701  -1.0291441   0.0000000
   12  -0.0000000  -0.0000001   1.3076821  -0.0000000   0.0000000  -0.0000010
   13   0.0000000   1.3076821   0.0000001  -0.0000000   0.0000000  -0.0615118
   14  -0.4595133   0.0000000   0.0000000   1.6788889   1.5682745   0.0000000
   15  -0.0000000   0.0000000  -0.0000000  -0.0000000  -0.0000000   0.0000000
   16  -0.0000000  -0.0070400  -0.0000000   0.0000000   0.0000000  -0.0144357
   17   0.0083574  -0.0000000  -0.0000000  -0.0335676  -0.0028648   0.0000000
   18   0.0000000   0.0000000  -0.0070400   0.0000000  -0.0000000  -0.0000002
   19   0.0000000  -0.0000000   0.0000000   0.0000000   0.0000000   0.0000000
   20  -0.0000000   0.0000000   0.0000000   0.0000000  -0.0000000  -0.0000000
   21   0.0000000   0.0084733   0.0000000  -0.0000000  -0.0000000   0.8597934
   22  -0.0415166   0.0000000   0.0000000   0.1792135  -0.0381779   0.0000000
   23  -0.0000000  -0.0000000   0.0084733  -0.0000000   0.0000000   0.0000135
   24  -0.0000000   0.0000000  -0.0000000  -0.0000000  -0.0000000  -0.0000000
   25   0.0000000   0.0000000  -0.0000000  -0.0000000   0.0000000   0.0000000
   26   0.0000000  -0.0000000   0.0000000   0.0000000   0.0000000   0.0000000
   27  -0.0000000   0.0013387   0.0000000  -0.0000000   0.0000000   0.0055128
   28  -0.0088632   0.0000000   0.0000000   0.0302159  -0.0156233   0.0000000
   29   0.0000000  -0.0000000   0.0013387  -0.0000000  -0.0000000   0.0000001
   30  -0.0000000  -0.0000000  -0.0000000  -0.0000000   0.0000000   0.0000000
   31  -0.0000000  -0.0000000   0.0000000   0.0000000  -0.0000000  -0.0000000
   32   0.0343653  -0.0000000  -0.0000000  -0.0862553   0.0910919   0.0000000
   33   0.3813376  -0.0000000  -0.0000000  -2.0018466   1.0311380  -0.0000000
   34  -0.9289735  -0.0000000  -0.0000000  -0.6540462  -2.3352629  -0.0000000
   35   0.0000000   0.0000000  -0.0090588   0.0000000   0.0000000   0.0000039
   36  -0.0000000  -0.0090588  -0.0000000   0.0000000  -0.0000000   0.2500113
   37  -0.0476521   0.0000000   0.0000000   0.1409909  -0.0628551   0.0000000
           13          14          15          16          17          18
    1  -0.0000000   0.0000000  -0.0000000   0.0000963  -0.0000000  -0.0000000
    2  -0.0000000   0.0000000  -0.0000000  -0.0045673  -0.0000000  -0.0000000
    3   0.0000000  -0.0000000   0.0000000   0.2638082  -0.0000000   0.0000000
    4  -0.0000000   0.0000000  -0.0000000  -0.9168441   0.0000000  -0.0000000
    5  -0.0000000  -0.0000000   0.0000000  -1.0253454  -0.0000000   0.0000000
    6  -0.0545556   0.0000000  -0.0000000  -0.0000000   0.0000207  -0.4285616
    7   0.0000009   0.0000000   0.0000000   0.0000000  -0.4285616  -0.0000207
    8   0.0000000   0.0000000  -0.0000000   0.0738565  -0.0000000   0.0000000
    9  -0.0216166   0.0000000  -0.0000000   0.0000000  -0.0000163   0.3363154
   10   0.0000003  -0.0000000   0.0000000  -0.0000000   0.3363154   0.0000163
   11  -0.0000000  -0.0000000   0.0000000  -0.8997801   0.0000000  -0.0000000
   12  -0.0615118  -0.0000000   0.0000000  -0.0000000   0.0000181  -0.3747914
   13   0.0000010   0.0000000  -0.0000000   0.0000000  -0.3747914  -0.0000181
   14  -0.0000000  -0.0000000   0.0000000  -0.9875012  -0.0000000   0.0000000
   15  -0.0000000  -0.0223995  -0.0000007   0.0000000   0.0000000  -0.0000000
   16   0.0000002  -0.0000000  -0.0000000  -0.0000000   0.0223470   0.0000011
   17  -0.0000000   0.0000000  -0.0000000   0.0132084   0.0000000  -0.0000000
   18  -0.0144357   0.0000000   0.0000000   0.0000000  -0.0000011   0.0223470
   19  -0.0000000   0.0000007  -0.0223995  -0.0000000  -0.0000000   0.0000000
   20   0.0000000   1.0114006   0.0000317  -0.0000000   0.0000000   0.0000000
   21  -0.0000135   0.0000000   0.0000000   0.0000000  -0.7628355  -0.0000369
   22  -0.0000000  -0.0000000   0.0000000  -1.5971610  -0.0000000  -0.0000000
   23   0.8597934  -0.0000000  -0.0000000  -0.0000000   0.0000369  -0.7628355
   24   0.0000000  -0.0000317   1.0114006   0.0000000   0.0000000  -0.0000000
   25  -0.0000000   0.0000000   0.0000000   0.0000000  -0.0000000   0.0000000
   26  -0.0000000   0.0119409   0.0000004   0.0000000   0.0000000   0.0000000
   27  -0.0000001  -0.0000000   0.0000000  -0.0000000   0.0207771   0.0000010
   28  -0.0000000  -0.0000000   0.0000000  -0.1101293   0.0000000  -0.0000000
   29   0.0055128  -0.0000000   0.0000000  -0.0000000  -0.0000010   0.0207771
   30  -0.0000000  -0.0000004   0.0119409   0.0000000   0.0000000   0.0000000
   31   0.0000000   0.0000000  -0.0000000   0.0000000   0.0000000  -0.0000000
   32  -0.0000000  -0.0000000   0.0000000  -0.2496940   0.0000000  -0.0000000
   33   0.0000000   0.0000000  -0.0000000   3.0220319  -0.0000000   0.0000000
   34   0.0000000   0.0000000  -0.0000000  -0.1663528   0.0000000  -0.0000000
   35   0.2500113  -0.0000000   0.0000000   0.0000000  -0.0000530   1.0963906
   36  -0.0000039  -0.0000000  -0.0000000  -0.0000000   1.0963906   0.0000530
   37  -0.0000000  -0.0000000   0.0000000  -0.4742233   0.0000000  -0.0000000
           19          20          21          22          23          24
    1   0.1069714  -0.0600852   0.0000000   0.0000000   0.0390566  -0.0003630
    2   0.3715395  -0.2090468   0.0000000   0.0000000   0.1328116   0.0243678
    3  -2.7727888   1.1709334  -0.0000000  -0.0000000  -0.6191298  -1.0184025
    4   4.8627590  -0.7585208   0.0000000  -0.0000000  -0.0480767   3.3653609
    5  -2.4888211   0.4733129  -0.0000000   0.0000000  -0.9988538  -0.4532392
    6  -0.0000000  -0.0000000  -0.0000065  -1.1811399   0.0000000  -0.0000000
    7   0.0000000   0.0000000  -1.1811399   0.0000065   0.0000000   0.0000000
    8  -0.2195139  -0.8723492  -0.0000000   0.0000000  -0.8822993  -0.3123296
    9   0.0000000   0.0000000   0.0000091   1.6435476   0.0000000   0.0000000
   10  -0.0000000  -0.0000000   1.6435476  -0.0000091  -0.0000000  -0.0000000
   11   1.2178382   1.7949440   0.0000000  -0.0000000   0.1424037   2.7661793
   12  -0.0000000  -0.0000000  -0.0000034  -0.6123684   0.0000000  -0.0000000
   13   0.0000000   0.0000000  -0.6123684   0.0000034   0.0000000  -0.0000000
   14  -0.4727546  -0.4428973  -0.0000000   0.0000000  -0.8535571  -0.1214601
   15  -0.0000000   0.0000000   0.0000000  -0.0000000  -0.0000000  -0.0000000
   16  -0.0000000  -0.0000000  -0.0170680   0.0000001  -0.0000000   0.0000000
   17   0.0185432   0.0166811  -0.0000000  -0.0000000  -0.0058860  -0.1702076
   18   0.0000000   0.0000000  -0.0000001  -0.0170680  -0.0000000  -0.0000000
   19   0.0000000  -0.0000000  -0.0000000   0.0000000   0.0000000  -0.0000000
   20   0.0000000  -0.0000000   0.0000000   0.0000000   0.0000000   0.0000000
   21   0.0000000   0.0000000   0.3008471  -0.0000017   0.0000000  -0.0000000
   22   0.1892757   0.1166513   0.0000000  -0.0000000  -0.3528392   1.5585915
   23  -0.0000000  -0.0000000   0.0000017   0.3008471   0.0000000   0.0000000
   24   0.0000000  -0.0000000   0.0000000  -0.0000000   0.0000000  -0.0000000
   25  -0.0000000  -0.0000000  -0.0000000  -0.0000000   0.0000000   0.0000000
   26  -0.0000000   0.0000000   0.0000000  -0.0000000   0.0000000   0.0000000
   27  -0.0000000  -0.0000000  -0.0303436   0.0000002   0.0000000  -0.0000000
   28   0.1422416   0.1401072   0.0000000  -0.0000000  -0.2453435  -0.1347660
   29   0.0000000  -0.0000000  -0.0000002  -0.0303436   0.0000000  -0.0000000
   30   0.0000000  -0.0000000   0.0000000   0.0000000  -0.0000000  -0.0000000
   31  -0.0000000   0.0000000  -0.0000000  -0.0000000  -0.0000000   0.0000000
   32   0.5723294   0.6216127   0.0000000  -0.0000000  -0.5715297  -0.8575015
   33  -2.0989754  -1.7518388  -0.0000000   0.0000000   1.8823393  -2.7703360
   34   1.4316677   0.5768484   0.0000000  -0.0000000   0.2558162   0.5597364
   35   0.0000000   0.0000000  -0.0000027  -0.4964442  -0.0000000  -0.0000000
   36  -0.0000000  -0.0000000  -0.4964442   0.0000027   0.0000000   0.0000000
   37   0.6854337   0.6269838   0.0000000  -0.0000000  -1.1730267   1.9772092
           25          26          27          28          29          30
    1  -0.0000000   0.0000000   0.0000000   0.0000000   0.0000000  -0.0000000
    2  -0.0000000   0.0000000   0.0000000   0.0000000  -0.0000000  -0.0000000
    3   0.0000000  -0.0000000  -0.0000000   0.0000000  -0.0000000  -0.0000000
    4  -0.0000000   0.0000000   0.0000000  -0.0000000   0.0000000   0.0000000
    5   0.0000000  -0.0000000  -0.0000000  -0.0000000  -0.0000000   0.0000000
    6   0.0000000   0.0000000  -0.0000000  -0.0000000   0.0000010  -0.0607050
    7   0.0000000   0.0000000   0.0000000  -0.0000000  -0.0607050  -0.0000010
    8   0.0000000  -0.0000000  -0.0000000  -0.0000000  -0.0000000  -0.0000000
    9  -0.0000000  -0.0000000   0.0000000   0.0000000  -0.0000026   0.1648002
   10  -0.0000000   0.0000000  -0.0000000   0.0000000   0.1648002   0.0000026
   11  -0.0000000   0.0000000  -0.0000000  -0.0000000   0.0000000   0.0000000
   12   0.0000000  -0.0000000  -0.0000000  -0.0000000  -0.0000004   0.0246444
   13   0.0000000   0.0000000   0.0000000  -0.0000000   0.0246444   0.0000004
   14   0.0000000  -0.0000000  -0.0000000   0.0000000  -0.0000000   0.0000000
   15   0.0376121   0.0000134  -0.0000000  -0.0000000   0.0000000  -0.0000000
   16   0.0000000   0.0000000  -0.0000000   0.0000000   0.4793226   0.0000075
   17   0.0000000  -0.0000000   0.0000000   0.0000000  -0.0000000  -0.0000000
   18  -0.0000000  -0.0000000   0.0000000   0.0000000  -0.0000075   0.4793226
   19  -0.0000134   0.0376121   0.0000000  -0.0000000   0.0000000  -0.0000000
   20  -0.0308928  -0.0000110   0.0000000   0.0000000  -0.0000000   0.0000000
   21  -0.0000000  -0.0000000  -0.0000000   0.0000000  -0.0169549  -0.0000003
   22  -0.0000000   0.0000000  -0.0000000  -0.0000000   0.0000000   0.0000000
   23   0.0000000  -0.0000000   0.0000000   0.0000000   0.0000003  -0.0169549
   24   0.0000110  -0.0308928  -0.0000000   0.0000000  -0.0000000   0.0000000
   25   0.0000000   0.0000000  -0.2913782   0.9566079  -0.0000000   0.0000000
   26   0.9994198   0.0003572  -0.0000000  -0.0000000  -0.0000000   0.0000000
   27  -0.0000000   0.0000000  -0.0000000   0.0000000   0.9683069   0.0000153
   28  -0.0000000   0.0000000  -0.0000000  -0.0000000   0.0000000   0.0000000
   29  -0.0000000  -0.0000000   0.0000000   0.0000000  -0.0000153   0.9683069
   30  -0.0003572   0.9994198   0.0000000  -0.0000000  -0.0000000   0.0000000
   31   0.0000000  -0.0000000   0.9566079   0.2913782   0.0000000  -0.0000000
   32   0.0000000  -0.0000000   0.0000000   0.0000000  -0.0000000  -0.0000000
   33   0.0000000  -0.0000000   0.0000000   0.0000000  -0.0000000  -0.0000000
   34  -0.0000000   0.0000000   0.0000000   0.0000000   0.0000000  -0.0000000
   35  -0.0000000   0.0000000  -0.0000000  -0.0000000   0.0000071  -0.4511671
   36  -0.0000000  -0.0000000   0.0000000  -0.0000000  -0.4511671  -0.0000071
   37  -0.0000000   0.0000000  -0.0000000  -0.0000000   0.0000000   0.0000000
           31          32          33          34          35          36
    1  -0.0000000   0.0000000   0.0000000   0.0000000  -0.0032969   0.0067676
    2  -0.0000000   0.0000000   0.0000000   0.0000000  -0.0083224   0.0400224
    3   0.0000000  -0.0000000   0.0000000  -0.0000000  -0.0222845  -1.1191024
    4   0.0000000   0.0000000  -0.0000000   0.0000000   0.3697334   3.2467712
    5  -0.0000000  -0.0000000  -0.0000000  -0.0000000  -0.5389796  -0.4052623
    6   0.0000000  -0.0000000  -0.0000003   0.0283917  -0.0000000   0.0000000
    7  -0.0000000   0.0000000   0.0283917   0.0000003  -0.0000000  -0.0000000
    8   0.0000000  -0.0000000  -0.0000000  -0.0000000   0.0394403  -0.3562173
    9  -0.0000000   0.0000000   0.0000011  -0.1200943   0.0000000  -0.0000000
   10   0.0000000  -0.0000000  -0.1200943  -0.0000011   0.0000000   0.0000000
   11   0.0000000   0.0000000  -0.0000000   0.0000000   0.1566520   2.6461107
   12   0.0000000  -0.0000000   0.0000002  -0.0220774   0.0000000   0.0000000
   13   0.0000000  -0.0000000  -0.0220774  -0.0000002  -0.0000000  -0.0000000
   14  -0.0000000  -0.0000000  -0.0000000  -0.0000000  -0.3618395  -0.0523556
   15  -0.0000051   1.1701800  -0.0000000  -0.0000000  -0.0000000  -0.0000000
   16  -0.0000000   0.0000000   1.0789294   0.0000103  -0.0000000   0.0000000
   17   0.0000000   0.0000000   0.0000000   0.0000000   1.2060442   0.1425845
   18   0.0000000   0.0000000  -0.0000103   1.0789294  -0.0000000  -0.0000000
   19   1.1701800   0.0000051   0.0000000  -0.0000000  -0.0000000   0.0000000
   20   0.0000025  -0.5893658   0.0000000   0.0000000   0.0000000   0.0000000
   21   0.0000000  -0.0000000  -0.7298451  -0.0000070   0.0000000  -0.0000000
   22  -0.0000000   0.0000000  -0.0000000  -0.0000000  -0.7138460   1.4946789
   23  -0.0000000  -0.0000000   0.0000070  -0.7298451   0.0000000   0.0000000
   24  -0.5893658  -0.0000025  -0.0000000   0.0000000   0.0000000  -0.0000000
   25   0.0000000   0.0000000   0.0000000   0.0000000  -0.0000000   0.0000000
   26   0.0000001  -0.0318949  -0.0000000   0.0000000   0.0000000   0.0000000
   27   0.0000000  -0.0000000  -0.4916237  -0.0000047   0.0000000  -0.0000000
   28  -0.0000000   0.0000000  -0.0000000  -0.0000000  -0.1935337   1.2819346
   29   0.0000000  -0.0000000   0.0000047  -0.4916237   0.0000000   0.0000000
   30  -0.0318949  -0.0000001  -0.0000000  -0.0000000   0.0000000  -0.0000000
   31  -0.0000000  -0.0000000   0.0000000   0.0000000  -0.0000000   0.0000000
   32   0.0000000  -0.0000000   0.0000000  -0.0000000   0.0914046  -1.4273964
   33   0.0000000  -0.0000000   0.0000000   0.0000000   0.1484073  -2.3539694
   34   0.0000000   0.0000000   0.0000000   0.0000000   0.2333899   0.4924231
   35  -0.0000000   0.0000000  -0.0000035   0.3670413  -0.0000000  -0.0000000
   36  -0.0000000   0.0000000   0.3670413   0.0000035  -0.0000000   0.0000000
   37   0.0000000   0.0000000  -0.0000000   0.0000000   0.3262630   1.6801381
           37
    1  -1.3847578
    2   1.6748414
    3  -1.4116310
    4   1.3763995
    5  -0.6822418
    6   0.0000000
    7   0.0000000
    8  -0.0295111
    9  -0.0000000
   10   0.0000000
   11   0.1279035
   12   0.0000000
   13  -0.0000000
   14  -0.1133890
   15   0.0000000
   16   0.0000000
   17  -0.0059082
   18   0.0000000
   19  -0.0000000
   20   0.0000000
   21   0.0000000
   22   0.0490132
   23   0.0000000
   24   0.0000000
   25   0.0000000
   26  -0.0000000
   27   0.0000000
   28   0.0208771
   29  -0.0000000
   30   0.0000000
   31  -0.0000000
   32  -0.0373131
   33  -0.1327096
   34   0.2596996
   35  -0.0000000
   36  -0.0000000
   37   0.0212245
 Final Alpha Density Matrix
            1           2           3           4           5           6
    1   0.2125587   0.3087697  -0.0308700  -0.0565709  -0.0209084   0.0000000
    2   0.3087697   0.4578057  -0.0807482  -0.1299346  -0.0508655   0.0000000
    3  -0.0308700  -0.0807482   0.1435099   0.1932806   0.0834761  -0.0000000
    4  -0.0565709  -0.1299346   0.1932806   0.2617878   0.1155103   0.0000000
    5  -0.0209084  -0.0508655   0.0834761   0.1155103   0.0700587  -0.0000000
    6   0.0000000   0.0000000  -0.0000000   0.0000000  -0.0000000   0.2213360
    7   0.0000000   0.0000000  -0.0000000   0.0000000  -0.0000000   0.0000000
    8   0.0071799   0.0165714  -0.0274683  -0.0440518  -0.0680966  -0.0000000
    9   0.0000000   0.0000000  -0.0000000   0.0000000  -0.0000000   0.2112226
   10  -0.0000000   0.0000000  -0.0000000   0.0000000  -0.0000000   0.0000000
   11   0.0044871   0.0116394  -0.0227788  -0.0366987  -0.0585024  -0.0000000
   12  -0.0000000  -0.0000000  -0.0000000   0.0000000  -0.0000000   0.1253278
   13   0.0000000   0.0000000  -0.0000000   0.0000000  -0.0000000   0.0000000
   14   0.0060748   0.0140866  -0.0223744  -0.0331681  -0.0350416  -0.0000000
   15  -0.0000000  -0.0000000   0.0000000   0.0000000   0.0000000   0.0000000
   16  -0.0000000  -0.0000000  -0.0000000  -0.0000000  -0.0000000  -0.0000000
   17  -0.0001987  -0.0005194   0.0008031   0.0007690  -0.0018852   0.0000000
   18  -0.0000000  -0.0000000   0.0000000   0.0000000  -0.0000000   0.0025154
   19  -0.0000000  -0.0000000   0.0000000   0.0000000   0.0000000   0.0000000
   20   0.0000000   0.0000000   0.0000000   0.0000000   0.0000000   0.0000000
   21   0.0000000   0.0000000   0.0000000   0.0000000  -0.0000000  -0.0000000
   22  -0.0004493  -0.0009505   0.0010012   0.0007929  -0.0036977   0.0000000
   23   0.0000000   0.0000000  -0.0000000   0.0000000  -0.0000000   0.0128744
   24   0.0000000   0.0000000  -0.0000000  -0.0000000  -0.0000000   0.0000000
   25  -0.0000000  -0.0000000  -0.0000000  -0.0000000  -0.0000000   0.0000000
   26   0.0000000  -0.0000000   0.0000000   0.0000000   0.0000000   0.0000000
   27  -0.0000000  -0.0000000  -0.0000000  -0.0000000   0.0000000  -0.0000000
   28  -0.0002867  -0.0006738   0.0010076   0.0012822  -0.0000111   0.0000000
   29  -0.0000000  -0.0000000  -0.0000000  -0.0000000   0.0000000  -0.0007857
   30  -0.0000000  -0.0000000   0.0000000   0.0000000   0.0000000  -0.0000000
   31   0.0000000   0.0000000   0.0000000   0.0000000   0.0000000  -0.0000000
   32  -0.0056189  -0.0131110   0.0186147   0.0215992  -0.0159963  -0.0000000
   33  -0.0024647  -0.0057945   0.0068320   0.0037467  -0.0373594  -0.0000000
   34   0.0017809   0.0049361  -0.0100750  -0.0154385  -0.0200495   0.0000000
   35  -0.0000000  -0.0000000  -0.0000000  -0.0000000  -0.0000000   0.0082202
   36   0.0000000   0.0000000  -0.0000000  -0.0000000  -0.0000000   0.0000000
   37   0.0014018   0.0033152  -0.0049463  -0.0061357   0.0012365   0.0000000
            7           8           9          10          11          12
    1   0.0000000   0.0071799   0.0000000  -0.0000000   0.0044871  -0.0000000
    2   0.0000000   0.0165714   0.0000000   0.0000000   0.0116394  -0.0000000
    3  -0.0000000  -0.0274683  -0.0000000  -0.0000000  -0.0227788  -0.0000000
    4   0.0000000  -0.0440518   0.0000000   0.0000000  -0.0366987   0.0000000
    5  -0.0000000  -0.0680966  -0.0000000  -0.0000000  -0.0585024  -0.0000000
    6   0.0000000  -0.0000000   0.2112226   0.0000000  -0.0000000   0.1253278
    7   0.2213360  -0.0000000   0.0000000   0.2112226   0.0000000   0.0000000
    8  -0.0000000   0.1317541  -0.0000000  -0.0000000   0.1142344  -0.0000000
    9   0.0000000  -0.0000000   0.2015713   0.0000000   0.0000000   0.1196013
   10   0.2112226  -0.0000000   0.0000000   0.2015713   0.0000000   0.0000000
   11   0.0000000   0.1142344   0.0000000   0.0000000   0.0990634  -0.0000000
   12   0.0000000  -0.0000000   0.1196013   0.0000000  -0.0000000   0.0709648
   13   0.1253278  -0.0000000   0.0000000   0.1196013   0.0000000   0.0000000
   14  -0.0000000   0.0577230  -0.0000000  -0.0000000   0.0499642  -0.0000000
   15   0.0000000   0.0000000   0.0000000   0.0000000   0.0000000   0.0000000
   16   0.0025154  -0.0000000  -0.0000000   0.0024004  -0.0000000  -0.0000000
   17   0.0000000   0.0055579   0.0000000   0.0000000   0.0048342   0.0000000
   18   0.0000000   0.0000000   0.0024004   0.0000000   0.0000000   0.0014243
   19  -0.0000000  -0.0000000   0.0000000  -0.0000000  -0.0000000   0.0000000
   20  -0.0000000   0.0000000   0.0000000  -0.0000000   0.0000000   0.0000000
   21   0.0128744  -0.0000000  -0.0000000   0.0122861   0.0000000  -0.0000000
   22   0.0000000   0.0102061   0.0000000   0.0000000   0.0088750   0.0000000
   23   0.0000000  -0.0000000   0.0122861  -0.0000000  -0.0000000   0.0072899
   24   0.0000000   0.0000000   0.0000000   0.0000000   0.0000000   0.0000000
   25  -0.0000000  -0.0000000   0.0000000  -0.0000000  -0.0000000   0.0000000
   26   0.0000000   0.0000000   0.0000000   0.0000000   0.0000000   0.0000000
   27  -0.0007857  -0.0000000  -0.0000000  -0.0007498  -0.0000000  -0.0000000
   28   0.0000000   0.0012590   0.0000000   0.0000000   0.0011018   0.0000000
   29  -0.0000000   0.0000000  -0.0007498   0.0000000   0.0000000  -0.0004449
   30  -0.0000000  -0.0000000  -0.0000000  -0.0000000  -0.0000000  -0.0000000
   31   0.0000000   0.0000000  -0.0000000   0.0000000   0.0000000  -0.0000000
   32   0.0000000   0.0616060   0.0000000   0.0000000   0.0536676  -0.0000000
   33  -0.0000000   0.0990689  -0.0000000  -0.0000000   0.0861171  -0.0000000
   34   0.0000000   0.0363872   0.0000000   0.0000000   0.0315354   0.0000000
   35   0.0000000   0.0000000   0.0078446   0.0000000   0.0000000   0.0046546
   36   0.0082202  -0.0000000   0.0000000   0.0078446  -0.0000000   0.0000000
   37   0.0000000  -0.0090499   0.0000000   0.0000000  -0.0079012   0.0000000
           13          14          15          16          17          18
    1   0.0000000   0.0060748  -0.0000000  -0.0000000  -0.0001987  -0.0000000
    2   0.0000000   0.0140866  -0.0000000  -0.0000000  -0.0005194  -0.0000000
    3  -0.0000000  -0.0223744   0.0000000  -0.0000000   0.0008031   0.0000000
    4   0.0000000  -0.0331681   0.0000000  -0.0000000   0.0007690   0.0000000
    5  -0.0000000  -0.0350416   0.0000000  -0.0000000  -0.0018852  -0.0000000
    6   0.0000000  -0.0000000   0.0000000  -0.0000000   0.0000000   0.0025154
    7   0.1253278  -0.0000000   0.0000000   0.0025154   0.0000000   0.0000000
    8  -0.0000000   0.0577230   0.0000000  -0.0000000   0.0055579   0.0000000
    9   0.0000000  -0.0000000   0.0000000  -0.0000000   0.0000000   0.0024004
   10   0.1196013  -0.0000000   0.0000000   0.0024004   0.0000000   0.0000000
   11   0.0000000   0.0499642   0.0000000  -0.0000000   0.0048342   0.0000000
   12   0.0000000  -0.0000000   0.0000000  -0.0000000   0.0000000   0.0014243
   13   0.0709648  -0.0000000   0.0000000   0.0014243   0.0000000   0.0000000
   14  -0.0000000   0.0260676   0.0000000  -0.0000000   0.0022874  -0.0000000
   15   0.0000000   0.0000000   0.0000000   0.0000000   0.0000000   0.0000000
   16   0.0014243  -0.0000000   0.0000000   0.0000286  -0.0000000  -0.0000000
   17   0.0000000   0.0022874   0.0000000  -0.0000000   0.0002624   0.0000000
   18   0.0000000  -0.0000000   0.0000000  -0.0000000   0.0000000   0.0000286
   19  -0.0000000  -0.0000000   0.0000000  -0.0000000   0.0000000   0.0000000
   20  -0.0000000   0.0000000   0.0000000  -0.0000000   0.0000000   0.0000000
   21   0.0072899  -0.0000000   0.0000000   0.0001463   0.0000000  -0.0000000
   22   0.0000000   0.0042354   0.0000000   0.0000000   0.0004752   0.0000000
   23   0.0000000  -0.0000000   0.0000000  -0.0000000  -0.0000000   0.0001463
   24   0.0000000   0.0000000  -0.0000000   0.0000000  -0.0000000   0.0000000
   25  -0.0000000  -0.0000000  -0.0000000  -0.0000000  -0.0000000   0.0000000
   26   0.0000000   0.0000000   0.0000000   0.0000000   0.0000000   0.0000000
   27  -0.0004449   0.0000000  -0.0000000  -0.0000089  -0.0000000  -0.0000000
   28   0.0000000   0.0004560   0.0000000   0.0000000   0.0000712   0.0000000
   29  -0.0000000   0.0000000  -0.0000000   0.0000000  -0.0000000  -0.0000089
   30  -0.0000000  -0.0000000  -0.0000000  -0.0000000  -0.0000000  -0.0000000
   31   0.0000000  -0.0000000  -0.0000000   0.0000000   0.0000000  -0.0000000
   32   0.0000000   0.0246214   0.0000000  -0.0000000   0.0030476   0.0000000
   33  -0.0000000   0.0413334   0.0000000  -0.0000000   0.0045712   0.0000000
   34   0.0000000   0.0161259   0.0000000   0.0000000   0.0014998   0.0000000
   35   0.0000000  -0.0000000   0.0000000  -0.0000000  -0.0000000   0.0000934
   36   0.0046546  -0.0000000   0.0000000   0.0000934  -0.0000000   0.0000000
   37   0.0000000  -0.0034505  -0.0000000   0.0000000  -0.0004792  -0.0000000
           19          20          21          22          23          24
    1  -0.0000000   0.0000000   0.0000000  -0.0004493   0.0000000   0.0000000
    2  -0.0000000   0.0000000   0.0000000  -0.0009505   0.0000000   0.0000000
    3   0.0000000   0.0000000   0.0000000   0.0010012  -0.0000000  -0.0000000
    4   0.0000000   0.0000000   0.0000000   0.0007929   0.0000000  -0.0000000
    5   0.0000000   0.0000000  -0.0000000  -0.0036977  -0.0000000  -0.0000000
    6   0.0000000   0.0000000  -0.0000000   0.0000000   0.0128744   0.0000000
    7  -0.0000000  -0.0000000   0.0128744   0.0000000   0.0000000   0.0000000
    8  -0.0000000   0.0000000  -0.0000000   0.0102061  -0.0000000   0.0000000
    9   0.0000000   0.0000000  -0.0000000   0.0000000   0.0122861   0.0000000
   10  -0.0000000  -0.0000000   0.0122861   0.0000000  -0.0000000   0.0000000
   11  -0.0000000   0.0000000   0.0000000   0.0088750  -0.0000000   0.0000000
   12   0.0000000   0.0000000  -0.0000000   0.0000000   0.0072899   0.0000000
   13  -0.0000000  -0.0000000   0.0072899   0.0000000   0.0000000   0.0000000
   14  -0.0000000   0.0000000  -0.0000000   0.0042354  -0.0000000   0.0000000
   15   0.0000000   0.0000000   0.0000000   0.0000000   0.0000000  -0.0000000
   16  -0.0000000  -0.0000000   0.0001463   0.0000000  -0.0000000   0.0000000
   17   0.0000000   0.0000000   0.0000000   0.0004752  -0.0000000  -0.0000000
   18   0.0000000   0.0000000  -0.0000000   0.0000000   0.0001463   0.0000000
   19   0.0000000   0.0000000  -0.0000000   0.0000000   0.0000000  -0.0000000
   20   0.0000000   0.0000000  -0.0000000   0.0000000   0.0000000  -0.0000000
   21  -0.0000000  -0.0000000   0.0007489   0.0000000  -0.0000000   0.0000000
   22   0.0000000   0.0000000   0.0000000   0.0008622   0.0000000   0.0000000
   23   0.0000000   0.0000000  -0.0000000   0.0000000   0.0007489   0.0000000
   24  -0.0000000  -0.0000000   0.0000000   0.0000000   0.0000000   0.0000000
   25  -0.0000000   0.0000000  -0.0000000  -0.0000000   0.0000000   0.0000000
   26   0.0000000   0.0000000   0.0000000   0.0000000   0.0000000  -0.0000000
   27   0.0000000   0.0000000  -0.0000457  -0.0000000  -0.0000000  -0.0000000
   28   0.0000000   0.0000000   0.0000000   0.0001265   0.0000000  -0.0000000
   29  -0.0000000  -0.0000000   0.0000000  -0.0000000  -0.0000457  -0.0000000
   30   0.0000000  -0.0000000  -0.0000000  -0.0000000  -0.0000000  -0.0000000
   31   0.0000000  -0.0000000   0.0000000   0.0000000  -0.0000000  -0.0000000
   32   0.0000000   0.0000000   0.0000000   0.0054903  -0.0000000  -0.0000000
   33   0.0000000   0.0000000  -0.0000000   0.0083017  -0.0000000   0.0000000
   34  -0.0000000   0.0000000   0.0000000   0.0027633   0.0000000   0.0000000
   35   0.0000000   0.0000000   0.0000000   0.0000000   0.0004781   0.0000000
   36  -0.0000000  -0.0000000   0.0004781   0.0000000   0.0000000   0.0000000
   37  -0.0000000  -0.0000000   0.0000000  -0.0008569   0.0000000   0.0000000
           25          26          27          28          29          30
    1  -0.0000000   0.0000000  -0.0000000  -0.0002867  -0.0000000  -0.0000000
    2  -0.0000000  -0.0000000  -0.0000000  -0.0006738  -0.0000000  -0.0000000
    3  -0.0000000   0.0000000  -0.0000000   0.0010076  -0.0000000   0.0000000
    4  -0.0000000   0.0000000  -0.0000000   0.0012822  -0.0000000   0.0000000
    5  -0.0000000   0.0000000   0.0000000  -0.0000111   0.0000000   0.0000000
    6   0.0000000   0.0000000  -0.0000000   0.0000000  -0.0007857  -0.0000000
    7  -0.0000000   0.0000000  -0.0007857   0.0000000  -0.0000000  -0.0000000
    8  -0.0000000   0.0000000  -0.0000000   0.0012590   0.0000000  -0.0000000
    9   0.0000000   0.0000000  -0.0000000   0.0000000  -0.0007498  -0.0000000
   10  -0.0000000   0.0000000  -0.0007498   0.0000000   0.0000000  -0.0000000
   11  -0.0000000   0.0000000  -0.0000000   0.0011018   0.0000000  -0.0000000
   12   0.0000000   0.0000000  -0.0000000   0.0000000  -0.0004449  -0.0000000
   13  -0.0000000   0.0000000  -0.0004449   0.0000000  -0.0000000  -0.0000000
   14  -0.0000000   0.0000000   0.0000000   0.0004560   0.0000000  -0.0000000
   15  -0.0000000   0.0000000  -0.0000000   0.0000000  -0.0000000  -0.0000000
   16  -0.0000000   0.0000000  -0.0000089   0.0000000   0.0000000  -0.0000000
   17  -0.0000000   0.0000000  -0.0000000   0.0000712  -0.0000000  -0.0000000
   18   0.0000000   0.0000000  -0.0000000   0.0000000  -0.0000089  -0.0000000
   19  -0.0000000   0.0000000   0.0000000   0.0000000  -0.0000000   0.0000000
   20   0.0000000   0.0000000   0.0000000   0.0000000  -0.0000000  -0.0000000
   21  -0.0000000   0.0000000  -0.0000457   0.0000000   0.0000000  -0.0000000
   22  -0.0000000   0.0000000  -0.0000000   0.0001265  -0.0000000  -0.0000000
   23   0.0000000   0.0000000  -0.0000000   0.0000000  -0.0000457  -0.0000000
   24   0.0000000  -0.0000000  -0.0000000  -0.0000000  -0.0000000  -0.0000000
   25   0.0000000  -0.0000000   0.0000000  -0.0000000  -0.0000000   0.0000000
   26  -0.0000000   0.0000000  -0.0000000   0.0000000  -0.0000000  -0.0000000
   27   0.0000000  -0.0000000   0.0000028  -0.0000000   0.0000000   0.0000000
   28  -0.0000000   0.0000000  -0.0000000   0.0000238  -0.0000000  -0.0000000
   29  -0.0000000  -0.0000000   0.0000000  -0.0000000   0.0000028   0.0000000
   30   0.0000000  -0.0000000   0.0000000  -0.0000000   0.0000000   0.0000000
   31  -0.0000000  -0.0000000  -0.0000000   0.0000000   0.0000000   0.0000000
   32  -0.0000000   0.0000000  -0.0000000   0.0008796  -0.0000000  -0.0000000
   33  -0.0000000   0.0000000  -0.0000000   0.0012009   0.0000000  -0.0000000
   34  -0.0000000   0.0000000  -0.0000000   0.0003251  -0.0000000  -0.0000000
   35   0.0000000   0.0000000  -0.0000000   0.0000000  -0.0000292  -0.0000000
   36  -0.0000000   0.0000000  -0.0000292   0.0000000  -0.0000000  -0.0000000
   37   0.0000000  -0.0000000   0.0000000  -0.0001496  -0.0000000   0.0000000
           31          32          33          34          35          36
    1   0.0000000  -0.0056189  -0.0024647   0.0017809  -0.0000000   0.0000000
    2   0.0000000  -0.0131110  -0.0057945   0.0049361  -0.0000000   0.0000000
    3   0.0000000   0.0186147   0.0068320  -0.0100750  -0.0000000  -0.0000000
    4   0.0000000   0.0215992   0.0037467  -0.0154385  -0.0000000  -0.0000000
    5   0.0000000  -0.0159963  -0.0373594  -0.0200495  -0.0000000  -0.0000000
    6  -0.0000000  -0.0000000  -0.0000000   0.0000000   0.0082202   0.0000000
    7   0.0000000   0.0000000  -0.0000000   0.0000000   0.0000000   0.0082202
    8   0.0000000   0.0616060   0.0990689   0.0363872   0.0000000  -0.0000000
    9  -0.0000000   0.0000000  -0.0000000   0.0000000   0.0078446   0.0000000
   10   0.0000000   0.0000000  -0.0000000   0.0000000   0.0000000   0.0078446
   11   0.0000000   0.0536676   0.0861171   0.0315354   0.0000000  -0.0000000
   12  -0.0000000  -0.0000000  -0.0000000   0.0000000   0.0046546   0.0000000
   13   0.0000000   0.0000000  -0.0000000   0.0000000   0.0000000   0.0046546
   14  -0.0000000   0.0246214   0.0413334   0.0161259  -0.0000000  -0.0000000
   15  -0.0000000   0.0000000   0.0000000   0.0000000   0.0000000   0.0000000
   16   0.0000000  -0.0000000  -0.0000000   0.0000000  -0.0000000   0.0000934
   17   0.0000000   0.0030476   0.0045712   0.0014998  -0.0000000  -0.0000000
   18  -0.0000000   0.0000000   0.0000000   0.0000000   0.0000934   0.0000000
   19   0.0000000   0.0000000   0.0000000  -0.0000000   0.0000000  -0.0000000
   20  -0.0000000   0.0000000   0.0000000   0.0000000   0.0000000  -0.0000000
   21   0.0000000   0.0000000  -0.0000000   0.0000000   0.0000000   0.0004781
   22   0.0000000   0.0054903   0.0083017   0.0027633   0.0000000   0.0000000
   23  -0.0000000  -0.0000000  -0.0000000   0.0000000   0.0004781   0.0000000
   24  -0.0000000  -0.0000000   0.0000000   0.0000000   0.0000000   0.0000000
   25  -0.0000000  -0.0000000  -0.0000000  -0.0000000   0.0000000  -0.0000000
   26  -0.0000000   0.0000000   0.0000000   0.0000000   0.0000000   0.0000000
   27  -0.0000000  -0.0000000  -0.0000000  -0.0000000  -0.0000000  -0.0000292
   28   0.0000000   0.0008796   0.0012009   0.0003251   0.0000000   0.0000000
   29   0.0000000  -0.0000000   0.0000000  -0.0000000  -0.0000292  -0.0000000
   30   0.0000000  -0.0000000  -0.0000000  -0.0000000  -0.0000000  -0.0000000
   31   0.0000000   0.0000000   0.0000000  -0.0000000  -0.0000000   0.0000000
   32   0.0000000   0.0360135   0.0526206   0.0164538  -0.0000000  -0.0000000
   33   0.0000000   0.0526206   0.0799948   0.0268710  -0.0000000  -0.0000000
   34  -0.0000000   0.0164538   0.0268710   0.0100968   0.0000000   0.0000000
   35  -0.0000000  -0.0000000  -0.0000000   0.0000000   0.0003053   0.0000000
   36   0.0000000  -0.0000000  -0.0000000   0.0000000   0.0000000   0.0003053
   37  -0.0000000  -0.0057965  -0.0081722  -0.0023775   0.0000000   0.0000000
           37
    1   0.0014018
    2   0.0033152
    3  -0.0049463
    4  -0.0061357
    5   0.0012365
    6   0.0000000
    7   0.0000000
    8  -0.0090499
    9   0.0000000
   10   0.0000000
   11  -0.0079012
   12   0.0000000
   13   0.0000000
   14  -0.0034505
   15  -0.0000000
   16   0.0000000
   17  -0.0004792
   18  -0.0000000
   19  -0.0000000
   20  -0.0000000
   21   0.0000000
   22  -0.0008569
   23   0.0000000
   24   0.0000000
   25   0.0000000
   26  -0.0000000
   27   0.0000000
   28  -0.0001496
   29  -0.0000000
   30   0.0000000
   31  -0.0000000
   32  -0.0057965
   33  -0.0081722
   34  -0.0023775
   35   0.0000000
   36   0.0000000
   37   0.0009614
 Final Beta Density Matrix
            1           2           3           4           5           6
    1   0.2125587   0.3087697  -0.0308700  -0.0565709  -0.0209084  -0.0000000
    2   0.3087697   0.4578057  -0.0807482  -0.1299346  -0.0508655  -0.0000000
    3  -0.0308700  -0.0807482   0.1435099   0.1932806   0.0834761  -0.0000000
    4  -0.0565709  -0.1299346   0.1932806   0.2617878   0.1155103  -0.0000000
    5  -0.0209084  -0.0508655   0.0834761   0.1155103   0.0700587  -0.0000000
    6  -0.0000000  -0.0000000  -0.0000000  -0.0000000  -0.0000000   0.0000000
    7   0.0000000   0.0000000   0.0000000   0.0000000   0.0000000  -0.0000000
    8   0.0071799   0.0165714  -0.0274683  -0.0440518  -0.0680966  -0.0000000
    9   0.0000000   0.0000000   0.0000000   0.0000000   0.0000000  -0.0000000
   10  -0.0000000  -0.0000000  -0.0000000  -0.0000000  -0.0000000   0.0000000
   11   0.0044871   0.0116394  -0.0227788  -0.0366987  -0.0585024  -0.0000000
   12  -0.0000000  -0.0000000  -0.0000000  -0.0000000  -0.0000000   0.0000000
   13   0.0000000   0.0000000   0.0000000   0.0000000   0.0000000  -0.0000000
   14   0.0060748   0.0140866  -0.0223744  -0.0331681  -0.0350416  -0.0000000
   15  -0.0000000  -0.0000000   0.0000000   0.0000000   0.0000000  -0.0000000
   16  -0.0000000  -0.0000000  -0.0000000  -0.0000000  -0.0000000   0.0000000
   17  -0.0001987  -0.0005194   0.0008031   0.0007690  -0.0018852  -0.0000000
   18  -0.0000000  -0.0000000   0.0000000   0.0000000   0.0000000  -0.0000000
   19  -0.0000000  -0.0000000   0.0000000   0.0000000   0.0000000  -0.0000000
   20   0.0000000   0.0000000   0.0000000   0.0000000   0.0000000  -0.0000000
   21   0.0000000   0.0000000   0.0000000   0.0000000   0.0000000  -0.0000000
   22  -0.0004493  -0.0009505   0.0010012   0.0007929  -0.0036977  -0.0000000
   23   0.0000000   0.0000000  -0.0000000  -0.0000000   0.0000000   0.0000000
   24   0.0000000   0.0000000  -0.0000000  -0.0000000  -0.0000000   0.0000000
   25  -0.0000000  -0.0000000  -0.0000000  -0.0000000  -0.0000000   0.0000000
   26   0.0000000  -0.0000000   0.0000000   0.0000000   0.0000000  -0.0000000
   27  -0.0000000  -0.0000000  -0.0000000  -0.0000000  -0.0000000   0.0000000
   28  -0.0002867  -0.0006738   0.0010076   0.0012822  -0.0000111  -0.0000000
   29  -0.0000000  -0.0000000  -0.0000000  -0.0000000  -0.0000000   0.0000000
   30  -0.0000000  -0.0000000   0.0000000   0.0000000   0.0000000   0.0000000
   31   0.0000000   0.0000000   0.0000000   0.0000000   0.0000000  -0.0000000
   32  -0.0056189  -0.0131110   0.0186147   0.0215992  -0.0159963  -0.0000000
   33  -0.0024647  -0.0057945   0.0068320   0.0037467  -0.0373594  -0.0000000
   34   0.0017809   0.0049361  -0.0100750  -0.0154385  -0.0200495  -0.0000000
   35  -0.0000000  -0.0000000  -0.0000000  -0.0000000  -0.0000000   0.0000000
   36   0.0000000   0.0000000  -0.0000000  -0.0000000  -0.0000000   0.0000000
   37   0.0014018   0.0033152  -0.0049463  -0.0061357   0.0012365   0.0000000
            7           8           9          10          11          12
    1   0.0000000   0.0071799   0.0000000  -0.0000000   0.0044871  -0.0000000
    2   0.0000000   0.0165714   0.0000000  -0.0000000   0.0116394  -0.0000000
    3   0.0000000  -0.0274683   0.0000000  -0.0000000  -0.0227788  -0.0000000
    4   0.0000000  -0.0440518   0.0000000  -0.0000000  -0.0366987  -0.0000000
    5   0.0000000  -0.0680966   0.0000000  -0.0000000  -0.0585024  -0.0000000
    6  -0.0000000  -0.0000000  -0.0000000   0.0000000  -0.0000000   0.0000000
    7   0.0000000  -0.0000000   0.0000000  -0.0000000  -0.0000000  -0.0000000
    8  -0.0000000   0.1317541   0.0000000  -0.0000000   0.1142344  -0.0000000
    9   0.0000000   0.0000000   0.0000000  -0.0000000   0.0000000  -0.0000000
   10  -0.0000000  -0.0000000  -0.0000000   0.0000000  -0.0000000   0.0000000
   11  -0.0000000   0.1142344   0.0000000  -0.0000000   0.0990634  -0.0000000
   12  -0.0000000  -0.0000000  -0.0000000   0.0000000  -0.0000000   0.0000000
   13   0.0000000   0.0000000   0.0000000  -0.0000000   0.0000000  -0.0000000
   14  -0.0000000   0.0577230   0.0000000  -0.0000000   0.0499642   0.0000000
   15   0.0000000   0.0000000   0.0000000  -0.0000000   0.0000000  -0.0000000
   16  -0.0000000  -0.0000000  -0.0000000   0.0000000  -0.0000000   0.0000000
   17  -0.0000000   0.0055579   0.0000000  -0.0000000   0.0048342  -0.0000000
   18   0.0000000   0.0000000   0.0000000  -0.0000000   0.0000000  -0.0000000
   19   0.0000000  -0.0000000   0.0000000  -0.0000000  -0.0000000  -0.0000000
   20   0.0000000   0.0000000   0.0000000  -0.0000000   0.0000000  -0.0000000
   21   0.0000000   0.0000000   0.0000000  -0.0000000   0.0000000  -0.0000000
   22  -0.0000000   0.0102061   0.0000000  -0.0000000   0.0088750  -0.0000000
   23   0.0000000  -0.0000000   0.0000000   0.0000000  -0.0000000  -0.0000000
   24  -0.0000000   0.0000000  -0.0000000   0.0000000   0.0000000   0.0000000
   25  -0.0000000  -0.0000000  -0.0000000   0.0000000  -0.0000000   0.0000000
   26   0.0000000   0.0000000   0.0000000  -0.0000000   0.0000000  -0.0000000
   27  -0.0000000  -0.0000000  -0.0000000   0.0000000  -0.0000000   0.0000000
   28  -0.0000000   0.0012590   0.0000000  -0.0000000   0.0011018  -0.0000000
   29  -0.0000000  -0.0000000  -0.0000000   0.0000000   0.0000000   0.0000000
   30   0.0000000  -0.0000000  -0.0000000   0.0000000  -0.0000000   0.0000000
   31   0.0000000   0.0000000   0.0000000  -0.0000000   0.0000000  -0.0000000
   32  -0.0000000   0.0616060   0.0000000  -0.0000000   0.0536676  -0.0000000
   33  -0.0000000   0.0990689   0.0000000  -0.0000000   0.0861171  -0.0000000
   34  -0.0000000   0.0363872   0.0000000  -0.0000000   0.0315354  -0.0000000
   35  -0.0000000   0.0000000  -0.0000000   0.0000000   0.0000000   0.0000000
   36  -0.0000000  -0.0000000  -0.0000000   0.0000000  -0.0000000   0.0000000
   37   0.0000000  -0.0090499  -0.0000000   0.0000000  -0.0079012   0.0000000
           13          14          15          16          17          18
    1   0.0000000   0.0060748  -0.0000000  -0.0000000  -0.0001987  -0.0000000
    2   0.0000000   0.0140866  -0.0000000  -0.0000000  -0.0005194  -0.0000000
    3   0.0000000  -0.0223744   0.0000000  -0.0000000   0.0008031   0.0000000
    4   0.0000000  -0.0331681   0.0000000  -0.0000000   0.0007690   0.0000000
    5   0.0000000  -0.0350416   0.0000000  -0.0000000  -0.0018852   0.0000000
    6  -0.0000000  -0.0000000  -0.0000000   0.0000000  -0.0000000  -0.0000000
    7   0.0000000  -0.0000000   0.0000000  -0.0000000  -0.0000000   0.0000000
    8   0.0000000   0.0577230   0.0000000  -0.0000000   0.0055579   0.0000000
    9   0.0000000   0.0000000   0.0000000  -0.0000000   0.0000000   0.0000000
   10  -0.0000000  -0.0000000  -0.0000000   0.0000000  -0.0000000  -0.0000000
   11   0.0000000   0.0499642   0.0000000  -0.0000000   0.0048342   0.0000000
   12  -0.0000000   0.0000000  -0.0000000   0.0000000  -0.0000000  -0.0000000
   13   0.0000000   0.0000000   0.0000000  -0.0000000   0.0000000   0.0000000
   14   0.0000000   0.0260676   0.0000000  -0.0000000   0.0022874   0.0000000
   15   0.0000000   0.0000000   0.0000000  -0.0000000   0.0000000   0.0000000
   16  -0.0000000  -0.0000000  -0.0000000   0.0000000  -0.0000000  -0.0000000
   17   0.0000000   0.0022874   0.0000000  -0.0000000   0.0002624   0.0000000
   18   0.0000000   0.0000000   0.0000000  -0.0000000   0.0000000   0.0000000
   19   0.0000000  -0.0000000   0.0000000  -0.0000000   0.0000000   0.0000000
   20   0.0000000   0.0000000   0.0000000  -0.0000000   0.0000000   0.0000000
   21   0.0000000   0.0000000   0.0000000  -0.0000000   0.0000000   0.0000000
   22   0.0000000   0.0042354   0.0000000  -0.0000000   0.0004752   0.0000000
   23   0.0000000  -0.0000000  -0.0000000   0.0000000  -0.0000000  -0.0000000
   24  -0.0000000   0.0000000  -0.0000000   0.0000000  -0.0000000  -0.0000000
   25  -0.0000000  -0.0000000  -0.0000000   0.0000000  -0.0000000  -0.0000000
   26   0.0000000   0.0000000   0.0000000  -0.0000000   0.0000000   0.0000000
   27  -0.0000000   0.0000000  -0.0000000   0.0000000  -0.0000000  -0.0000000
   28   0.0000000   0.0004560   0.0000000  -0.0000000   0.0000712   0.0000000
   29  -0.0000000   0.0000000  -0.0000000   0.0000000  -0.0000000  -0.0000000
   30  -0.0000000  -0.0000000  -0.0000000   0.0000000  -0.0000000  -0.0000000
   31   0.0000000  -0.0000000   0.0000000  -0.0000000   0.0000000   0.0000000
   32   0.0000000   0.0246214   0.0000000  -0.0000000   0.0030476   0.0000000
   33   0.0000000   0.0413334   0.0000000  -0.0000000   0.0045712   0.0000000
   34   0.0000000   0.0161259   0.0000000  -0.0000000   0.0014998   0.0000000
   35  -0.0000000   0.0000000  -0.0000000   0.0000000  -0.0000000  -0.0000000
   36  -0.0000000  -0.0000000  -0.0000000   0.0000000  -0.0000000  -0.0000000
   37  -0.0000000  -0.0034505  -0.0000000   0.0000000  -0.0004792  -0.0000000
           19          20          21          22          23          24
    1  -0.0000000   0.0000000   0.0000000  -0.0004493   0.0000000   0.0000000
    2  -0.0000000   0.0000000   0.0000000  -0.0009505   0.0000000   0.0000000
    3   0.0000000   0.0000000   0.0000000   0.0010012  -0.0000000  -0.0000000
    4   0.0000000   0.0000000   0.0000000   0.0007929  -0.0000000  -0.0000000
    5   0.0000000   0.0000000   0.0000000  -0.0036977   0.0000000  -0.0000000
    6  -0.0000000  -0.0000000  -0.0000000  -0.0000000   0.0000000   0.0000000
    7   0.0000000   0.0000000   0.0000000  -0.0000000   0.0000000  -0.0000000
    8  -0.0000000   0.0000000   0.0000000   0.0102061  -0.0000000   0.0000000
    9   0.0000000   0.0000000   0.0000000   0.0000000   0.0000000  -0.0000000
   10  -0.0000000  -0.0000000  -0.0000000  -0.0000000   0.0000000   0.0000000
   11  -0.0000000   0.0000000   0.0000000   0.0088750  -0.0000000   0.0000000
   12  -0.0000000  -0.0000000  -0.0000000  -0.0000000  -0.0000000   0.0000000
   13   0.0000000   0.0000000   0.0000000   0.0000000   0.0000000  -0.0000000
   14  -0.0000000   0.0000000   0.0000000   0.0042354  -0.0000000   0.0000000
   15   0.0000000   0.0000000   0.0000000   0.0000000  -0.0000000  -0.0000000
   16  -0.0000000  -0.0000000  -0.0000000  -0.0000000   0.0000000   0.0000000
   17   0.0000000   0.0000000   0.0000000   0.0004752  -0.0000000  -0.0000000
   18   0.0000000   0.0000000   0.0000000   0.0000000  -0.0000000  -0.0000000
   19   0.0000000   0.0000000   0.0000000   0.0000000  -0.0000000  -0.0000000
   20   0.0000000   0.0000000   0.0000000   0.0000000  -0.0000000  -0.0000000
   21   0.0000000   0.0000000   0.0000000   0.0000000  -0.0000000  -0.0000000
[...]
    15    3.212056806171e-15
    16    6.001358238861e-18
    17    7.040005586483e-03
    18    1.475768352024e-17
    19   -8.538871338865e-17
    20   -1.753764399974e-14
    21   -2.531074051580e-16
    22   -8.473305746782e-03
    23   -3.189288113211e-16
    24   -2.997058739195e-17
    25   -2.923853109635e-15
    26   -5.568916471682e-18
    27   -1.338729419227e-03
    28    6.361869165902e-17
    29    3.324708755582e-17
    30    2.479780156042e-16
    31   -4.357167280116e-13
    32    8.341164297130e-15
    33    1.929581516691e-13
    34    5.789366803381e-14
    35    4.582148072480e-16
    36    9.058829683273e-03
    37   -1.378113009481e-14
Sym=X
Ene= 0.476760
Spin=Alpha
Occup=0
     1    3.842983572338e-03
     2    2.880783288928e-03
     3    3.505091064882e-02
     4   -4.971977491435e-01
     5    2.352560446480e+00
     6    1.383111702951e-14
     7    2.264133156603e-14
     8    6.247244482417e-02
     9    4.505096735753e-14
    10    7.454614933889e-14
    11    2.725700737117e-01
    12   -7.579773630586e-14
    13   -1.248915113650e-13
    14    1.678888901207e+00
    15   -3.356758938300e-02
    16    3.806533575228e-16
    17    6.855811243809e-16
    18    1.140879587899e-11
    19   -9.677151057424e-17
    20    1.792134712521e-01
    21   -5.877642387884e-16
    22   -7.835725591845e-16
    23   -9.794794187473e-11
    24    6.053108212968e-17
    25    3.021592404574e-02
    26   -1.018353784749e-16
    27   -6.281429710344e-17
    28   -3.951726678510e-12
    29    1.550694363415e-17
    30    1.595133911445e-17
    31   -6.247652085738e-17
    32   -8.625534445478e-02
    33   -2.001846604056e+00
    34   -6.540462383793e-01
    35    6.391390222207e-16
    36    4.212067223416e-16
    37    1.409908869908e-01
Sym=X
Ene= 0.636165
Spin=Alpha
Occup=0
     1    3.331669703645e-02
     2    7.081835976280e-02
     3    1.036215604532e-01
     4   -1.605462036276e+00
     5    2.597061172366e+00
     6    4.711520430093e-16
     7    1.136674660229e-16
     8   -2.989356428474e-01
     9   -1.257322221877e-15
    10    2.202069043982e-17
    11   -1.029144093331e+00
    12    1.077864297274e-15
    13    2.211633314725e-16
    14    1.568274460474e+00
    15   -2.864829344548e-03
    16   -7.957632550799e-17
    17    3.216107050812e-17
    18    5.053773278206e-12
    19   -7.281853762966e-17
    20   -3.817785431498e-02
    21    5.576619634241e-17
    22   -1.907267725798e-16
    23   -3.671740321997e-11
    24   -3.604706409645e-17
    25   -1.562333708663e-02
    26   -3.612154415282e-17
    27    6.613035793328e-17
    28    1.390923431114e-12
    29    1.938139173160e-18
    30   -2.378070971532e-17
    31    5.377522852282e-17
    32    9.109193626051e-02
    33    1.031138025205e+00
    34   -2.335262932622e+00
    35    6.393668972858e-16
    36   -1.309625349684e-16
    37   -6.285511097658e-02
Sym=X
Ene= 1.144474
Spin=Alpha
Occup=0
     1   -1.022850493180e-16
     2   -3.672886908867e-16
     3    3.038938742358e-15
     4   -5.454985106732e-15
     5   -4.862592336341e-16
     6   -5.455556044413e-02
     7   -5.400823957294e-16
     8    1.121227163797e-17
     9   -2.161658014456e-02
    10    6.944057424220e-16
    11   -6.024146689978e-16
    12   -6.151181678507e-02
    13    4.050314154405e-16
    14   -2.706224201158e-15
    15   -1.401487300859e-16
    16   -1.443568787547e-02
    17   -1.068513008846e-16
    18   -2.048871076308e-17
    19   -9.803052180405e-17
    20   -2.275845271736e-15
    21    8.597934038679e-01
    22   -2.178301727165e-15
    23    8.822030837965e-16
    24    4.186141100148e-15
    25   -4.372316399447e-16
    26    5.512798287816e-03
    27    1.172609860477e-16
    28   -2.987208793897e-16
    29   -6.732058221297e-17
    30    8.173663295752e-13
    31   -1.977855734102e-16
    32   -1.020147067730e-15
    33    5.085357265932e-15
    34    6.192313704690e-16
    35    2.500113310670e-01
    36   -1.728866952502e-15
    37   -1.101034607771e-15
Sym=X
Ene= 1.144474
Spin=Alpha
Occup=0
     1    1.041615274722e-17
     2    7.742458582764e-17
     3   -2.844862443598e-16
     4    8.375319647648e-17
     5   -5.932912832599e-15
     6    2.746276249046e-16
     7    5.455556044972e-02
     8    1.339109049274e-16
     9   -1.151033379771e-15
    10    2.161658016113e-02
    11   -1.428423509968e-15
    12    1.932288840001e-15
    13    6.151181674412e-02
    14   -4.293462085586e-15
    15   -2.897116073134e-17
    16    6.015860918744e-17
    17    1.443568788779e-02
    18   -2.792845925834e-17
    19   -2.038212231955e-16
    20   -3.509310804456e-15
    21   -2.402525576896e-15
    22   -8.597934038925e-01
    23    4.534403368656e-16
    24    6.323498821133e-16
    25   -3.495364380258e-16
    26   -9.128805749181e-17
    27   -5.512798289242e-03
    28   -3.149125625988e-17
    29   -9.620231247719e-17
    30    3.060188625856e-16
    31   -8.177974481456e-13
    32   -8.503605899362e-16
    33    7.658819121086e-15
    34    1.773208906184e-15
    35   -9.202296747631e-16
    36   -2.500113310391e-01
    37   -1.158866754805e-15
Sym=X
Ene= 1.197721
Spin=Alpha
Occup=0
     1    3.221235224290e-18
     2    1.480864066039e-16
     3   -1.525861006905e-15
     4    3.166632844463e-15
     5   -2.046264924333e-16
     6   -1.014595195649e-15
     7   -6.115748809922e-16
     8    4.968548142994e-17
     9   -3.313852950559e-16
    10    5.871948861029e-16
    11    8.803279333502e-16
    12    5.108694044153e-16
    13   -1.810248414319e-16
    14    1.540767460795e-15
    15   -5.953025571757e-17
    16   -7.936286453072e-16
    17    1.608280902873e-17
    18    2.175354379022e-15
    19    2.239945594014e-02
    20    2.477595300115e-15
    21    3.486869569432e-15
    22   -9.476235309644e-16
    23   -8.658261129805e-14
    24   -1.011400585270e+00
    25   -8.262966308551e-17
    26    3.582495346735e-16
    27    1.518676444429e-16
    28   -1.096275565434e-15
    29   -1.194094570460e-02
    30   -1.118161981209e-16
    31   -2.609763231521e-16
    32    6.593205997673e-17
    33   -4.491071870304e-15
    34    8.182303585301e-16
    35    1.969316375596e-15
    36    6.518790525551e-16
    37    5.233898486686e-16
Sym=X
Ene= 1.197721
Spin=Alpha
Occup=0
     1   -3.412789917858e-12
     2   -1.567385015270e-11
     3    1.110163109060e-10
     4   -2.733856913689e-10
     5    7.055815128585e-10
     6   -3.051290992736e-16
     7    6.805187778453e-16
     8   -1.472019516113e-11
     9   -4.690463441235e-16
    10    1.498457602528e-16
    11    1.128832229106e-10
    12    1.024035273062e-15
    13   -6.733519529577e-16
    14    3.171892379953e-10
    15   -1.170413016220e-11
    16    1.293511433017e-16
    17   -4.315554904789e-16
    18   -2.239945594014e-02
    19    2.025881973326e-15
    20    2.432808644517e-10
    21   -1.063291528126e-15
    22    1.197697286719e-15
    23    1.011400585270e+00
    24   -8.650414798161e-14
    25    1.442508006084e-11
    26    1.045339034446e-16
    27    5.455056559907e-16
    28    1.194094570460e-02
    29   -1.295434594179e-15
    30   -2.155973304222e-16
    31    2.165050325004e-16
    32    1.217425041553e-11
    33   -5.013263815017e-10
    34   -1.929274549667e-10
    35    6.355387721801e-17
    36   -8.019917631247e-16
    37    6.139910339839e-11
Sym=X
Ene= 1.471110
Spin=Alpha
Occup=0
     1    9.628419252585e-05
     2   -4.567312878916e-03
     3    2.638082399281e-01
     4   -9.168440757948e-01
     5   -1.025345416126e+00
     6   -3.616144292077e-16
     7    1.202077979114e-15
     8    7.385649617754e-02
     9    1.284382966638e-15
    10   -1.752160885618e-15
    11   -8.997801324837e-01
    12   -1.351374295718e-15
    13    1.823243418090e-15
    14   -9.875011694296e-01
    15    1.320837616123e-02
    16    1.538052318595e-16
    17   -3.065806755365e-16
    18   -4.349426690789e-13
    19    2.114240288627e-16
    20   -1.597161000355e+00
    21   -2.471971107586e-15
    22    5.025726183660e-15
    23    1.416303416341e-10
    24   -1.978378589099e-15
    25   -1.101293365871e-01
    26   -4.122040824885e-17
    27   -2.197398676765e-17
    28    2.352347595851e-12
    29    1.568095658504e-16
    30    5.819300750981e-17
    31    5.574945729525e-18
    32   -2.496940156987e-01
    33    3.022031882171e+00
    34   -1.663528157338e-01
    35    6.734365689598e-16
    36   -2.830510478902e-15
    37   -4.742233370523e-01
Sym=X
Ene= 2.104837
Spin=Alpha
Occup=0
     1   -2.624893148016e-15
     2   -8.837390386402e-15
     3    6.896878189912e-14
     4   -1.316212911464e-13
     5    6.119115252416e-14
     6   -4.285616170260e-01
     7   -4.962354426583e-15
     8    7.877810930196e-15
     9    3.363153743867e-01
    10    5.732689416850e-15
    11   -4.428478251343e-14
    12   -3.747913961844e-01
    13   -5.665832708968e-16
    14    1.320388039713e-14
    15   -1.699294058395e-15
    16    2.234696020402e-02
    17   -7.019986098327e-16
    18    5.357123204847e-16
    19   -3.224828755411e-17
    20   -4.363042016255e-15
    21   -7.628355357575e-01
    22    1.780140363896e-15
    23   -8.177016548537e-16
    24    1.543539425657e-15
    25   -6.008801370232e-15
    26    2.077710438792e-02
    27   -3.353017915307e-16
    28    1.256102591362e-16
    29    9.714397500821e-16
    30   -8.064129094138e-13
    31    6.032475600339e-16
    32   -2.392552345166e-14
    33    7.618219493208e-14
    34   -4.102976820238e-14
    35    1.096390644823e+00
    36   -2.667218013357e-15
    37   -2.876815239942e-14
Sym=X
Ene= 2.104837
Spin=Alpha
Occup=0
     1    2.010884929419e-17
     2    5.717558880187e-17
     3    4.064683988103e-15
     4   -2.757002329951e-14
     5    1.638474265035e-14
     6    4.787705544445e-15
     7    4.285616171019e-01
     8    1.772236307015e-14
     9   -6.476638485371e-15
    10   -3.363153744216e-01
    11   -4.104237913716e-14
    12    3.580761311556e-15
    13    3.747913961397e-01
    14    1.540767271258e-14
    15   -9.639361576034e-16
    16    3.255185580374e-17
    17   -2.234696021002e-02
    18    2.401447166825e-16
    19   -1.145398635686e-15
    20    4.827499210526e-15
    21    8.956703242089e-17
    22    7.628355357300e-01
    23   -1.216397250448e-15
    24   -3.894107148270e-16
    25   -4.238612344094e-15
    26   -4.067816301527e-17
    27   -2.077710438169e-02
    28   -3.953442299810e-16
    29   -7.446768824385e-16
    30   -8.385971345540e-16
    31    8.081441859273e-13
    32   -1.967926751468e-14
    33    4.475796709359e-14
    34   -2.338531860158e-14
    35   -1.547503505928e-15
    36   -1.096390644805e+00
    37   -1.673164967515e-14
Sym=X
Ene= 2.198037
Spin=Alpha
Occup=0
     1    1.069713687144e-01
     2    3.715395151876e-01
     3   -2.772788824392e+00
     4    4.862758978437e+00
     5   -2.488821101717e+00
     6   -1.495056221264e-14
     7    9.075850826290e-15
     8   -2.195138659099e-01
     9    1.207216614576e-14
    10   -9.193560913801e-15
    11    1.217838224070e+00
    12   -1.155943755904e-14
    13    5.992252794214e-15
    14   -4.727546029162e-01
    15    1.854316514837e-02
    16    4.427955625303e-16
    17   -4.220127345580e-16
    18    5.887366157900e-12
    19   -9.921950757559e-17
    20    1.892757475976e-01
    21   -2.124375287015e-14
    22    8.121960954544e-15
    23    3.743809490229e-11
    24    2.462901489086e-16
    25    1.422415810845e-01
    26    7.401241588170e-16
    27   -4.046783651192e-16
    28    1.618989300112e-12
    29   -1.386198032380e-18
    30   -6.692851800359e-16
    31   -2.373316999168e-16
    32    5.723293747419e-01
    33   -2.098975400632e+00
    34    1.431667698853e+00
    35    3.329398659640e-14
    36   -1.100837681063e-14
    37    6.854336921106e-01
Sym=X
Ene= 2.246856
Spin=Alpha
Occup=0
     1   -6.008519097171e-02
     2   -2.090468033899e-01
     3    1.170933421659e+00
     4   -7.585207713445e-01
     5    4.733128921282e-01
     6   -1.107876083036e-14
     7    1.232874615582e-14
     8   -8.723492452639e-01
     9    1.268694290522e-14
    10   -1.199401572829e-14
    11    1.794944034182e+00
    12   -5.765138549078e-15
    13    1.014657396604e-14
    14   -4.428972728413e-01
    15    1.668113939230e-02
    16    3.394561006329e-17
    17   -1.307623088713e-15
    18   -2.452090401350e-12
    19    4.382875098944e-16
    20    1.166512593107e-01
    21   -4.113734192379e-15
    22    1.548005581134e-14
    23   -8.300464757403e-12
    24   -1.004105997717e-15
    25    1.401071895722e-01
    26   -2.191704682622e-16
    27   -8.737129448681e-16
    28   -4.180280798894e-12
    29    1.363434669218e-16
    30    1.759888183761e-16
    31   -5.077023586794e-16
    32    6.216126756113e-01
    33   -1.751838803594e+00
    34    5.768484381023e-01
    35    4.605167620702e-15
    36   -2.185380642835e-14
    37    6.269837983565e-01
Sym=X
Ene= 2.361051
Spin=Alpha
Occup=0
     1   -2.869176713888e-16
     2   -8.044393216067e-16
     3    1.928819554092e-15
     4    8.567235649578e-15
     5   -1.074479438139e-14
     6    1.181139885329e+00
     7    1.663214591156e-14
     8   -7.423252083877e-15
     9   -1.643547635080e+00
    10   -2.501444541263e-14
    11    1.838563263307e-14
    12    6.123684046914e-01
    13    9.671599225083e-15
    14   -9.278635982975e-15
    15    2.651348742323e-16
    16    1.706795490996e-02
    17   -6.218920555257e-17
    18   -2.848935661040e-16
    19    6.885841028481e-16
    20    1.286598073802e-15
    21   -3.008470873015e-01
    22   -6.797307162613e-15
    23    1.793849645626e-16
    24   -4.177662453086e-16
    25    6.099721022548e-16
    26    3.034363325898e-02
    27    2.240763387338e-15
    28   -5.118412320591e-17
    29    1.840631784537e-16
    30    1.481279050659e-11
    31    1.056157572524e-15
    32    3.517230647218e-15
    33   -1.594656509391e-14
    34    1.327584421737e-14
    35    4.964442011842e-01
    36    1.031358859253e-14
    37    5.537160926408e-15
Sym=X
Ene= 2.361051
Spin=Alpha
Occup=0
     1   -2.501592508393e-16
     2   -9.220880104791e-16
     3    7.818516513823e-15
     4   -1.622734857329e-14
     5    9.506087860536e-15
     6   -1.952677420170e-14
     7    1.181139885334e+00
     8    4.430541435801e-15
     9    2.807694254983e-14
    10   -1.643547635000e+00
    11   -1.095379574187e-14
    12   -1.385727227209e-14
    13    6.123684045943e-01
    14    5.132299912156e-15
    15    9.743626144934e-17
    16   -2.031484869206e-16
    17    1.706795491472e-02
    18    2.668292154097e-16
    19   -1.773290682468e-16
    20   -9.918288506068e-16
    21    2.020302793532e-15
    22   -3.008470873348e-01
    23   -5.605066169605e-16
    24   -5.141627993468e-16
    25   -4.488864296692e-17
    26   -1.628507802245e-16
    27    3.034363326478e-02
    28   -4.854131180697e-16
    29   -3.380444290289e-17
    30    3.974364652051e-16
    31    1.481301879188e-11
    32   -3.016628238009e-15
    33    1.005438795632e-14
    34   -6.967314257294e-15
    35   -1.797868299600e-15
    36    4.964442012405e-01
    37   -3.719798949483e-15
Sym=X
Ene= 2.705760
Spin=Alpha
Occup=0
     1    3.905662459183e-02
     2    1.328116251022e-01
     3   -6.191298087845e-01
     4   -4.807673583244e-02
     5   -9.988537657259e-01
     6    5.981402465492e-16
     7    7.161128567655e-16
     8   -8.822993120074e-01
     9    1.017375213728e-15
    10   -1.607399303677e-15
    11    1.424036556465e-01
    12    1.137999121429e-15
    13    8.189579637557e-16
    14   -8.535570923089e-01
    15   -5.886021679692e-03
    16   -4.763763768685e-15
    17   -2.486020195608e-15
    18    1.508887523729e-13
    19   -1.089737774897e-15
    20   -3.528392478178e-01
    21    7.464111885797e-15
    22    8.256612077130e-16
    23    7.532453860750e-14
    24    8.477619304456e-16
    25   -2.453434926386e-01
    26    1.944836104799e-15
    27    2.509937726111e-15
    28   -1.366168604743e-11
    29    6.639231554908e-18
    30   -7.406432656339e-16
    31    5.916465739070e-18
    32   -5.715296572173e-01
    33    1.882339297130e+00
    34    2.558162329439e-01
    35   -8.475005806842e-15
    36    1.398441603279e-15
    37   -1.173026714195e+00
Sym=X
Ene= 3.192220
Spin=Alpha
Occup=0
     1   -3.629814916019e-04
     2    2.436777469623e-02
     3   -1.018402537749e+00
     4    3.365360880811e+00
     5   -4.532392072094e-01
     6   -1.058458763174e-15
     7    4.609153995350e-16
     8   -3.123295950124e-01
     9    1.650305197118e-15
    10   -1.057282823386e-15
    11    2.766179265517e+00
    12   -3.042542230536e-16
    13   -2.599355430582e-16
    14   -1.214600931019e-01
    15   -1.702075704240e-01
    16   -4.196105064708e-16
    17    3.518724651090e-16
    18   -5.125567536821e-12
    19   -1.468231571375e-15
    20    1.558591453271e+00
    21    4.308893895138e-16
    22   -1.963389282798e-15
    23   -1.078388682628e-12
    24    1.124101177684e-15
    25   -1.347660021116e-01
    26   -1.617256616479e-16
    27   -6.705098319502e-16
    28   -2.764891522740e-11
    29    2.640135700045e-16
    30    8.180131339355e-16
    31    9.314012330243e-16
    32   -8.575014679526e-01
    33   -2.770335980218e+00
    34    5.597363849329e-01
    35   -1.367466664426e-15
    36    3.437630620202e-15
    37    1.977209233255e+00
Sym=X
Ene= 4.201300
Spin=Alpha
Occup=0
     1    5.288717706040e-17
     2   -4.783966063924e-17
     3    7.811687706993e-17
     4    8.654549580362e-17
     5    4.904665212993e-16
     6   -4.598556105282e-16
     7   -8.107370094750e-16
     8   -3.304113911290e-16
     9    4.784292129507e-17
    10    1.036260280709e-15
    11    1.609037472152e-15
    12   -3.656362613668e-16
    13   -9.231032915825e-16
    14   -1.005028893392e-15
    15    9.194503435856e-16
    16    1.431053971429e-15
    17   -4.735000032526e-15
    18   -5.139819228710e-16
    19   -3.761207798518e-02
    20   -5.774372289324e-16
    21   -2.505234316727e-15
    22    2.263719212586e-15
    23   -1.508784307142e-15
    24    3.089277211119e-02
    25    7.358656238545e-17
    26    9.501569075246e-16
    27    8.124832897889e-16
    28    4.823425341618e-14
    29   -9.994198959148e-01
    30   -1.433543399693e-12
    31   -7.637772115776e-13
    32   -4.527327742699e-16
    33   -2.804662904707e-16
    34   -1.158194195907e-17
    35    2.026679770418e-15
    36    7.900230919994e-16
    37    1.159780720546e-15
Sym=X
Ene= 4.201300
Spin=Alpha
Occup=0
     1   -2.230017702267e-13
     2   -1.576054788036e-12
     3    3.847139123446e-11
     4   -1.119103124507e-10
     5    2.029381122589e-11
     6   -1.356746900611e-15
     7   -2.214387837347e-16
     8    2.409864330545e-11
     9    3.999339283684e-15
    10   -5.172745836951e-17
    11   -1.120098912791e-10
    12    1.834358466254e-16
    13   -1.849250179047e-15
    14    1.085185883877e-11
    15    8.124177091630e-12
    16    4.827276476621e-15
    17   -1.770150421316e-14
    18   -3.761207798520e-02
    19   -2.496110386850e-15
    20   -5.617272836625e-11
    21    1.317799132381e-15
    22    5.949843641699e-15
    23    3.089277211120e-02
    24    2.067327167475e-15
    25   -5.369556294389e-12
    26    1.990148593090e-14
    27   -1.440226378610e-14
    28   -9.994198959148e-01
    29   -4.822917311547e-14
    30    1.354448370330e-12
    31   -4.456400692769e-13
    32    4.173608059148e-11
    33    8.400578880474e-11
    34   -2.299133417113e-11
    35   -9.808364786608e-15
    36    6.051957601969e-15
    37   -5.441657798475e-11
[5D7F]

======= END OF MOLDEN-FORMATTED INPUT FILE =======


        *************************************************************
        *                                                           *
        *  Thank you very much for using Q-Chem.  Have a nice day.  *
        *                                                           *
        *************************************************************


