                  Welcome to Q-Chem
     A Quantum Leap Into The Future Of Chemistry


 Q-Chem 6.0 (devel), Q-Chem, Inc., Pleasanton, CA (2022)

 E. Epifanovsky,  A. T. B. Gilbert,  Xintian Feng,  Joonho Lee,  Yuezhi Mao,  
 N. Mardirossian,  P. Pokhilko,  A. White,  M. Wormit,  M. P. Coons,

 A. L. Dempwolff,  Zhengting Gan,  D. Hait,  P. R. Horn,  L. D. Jacobson,  
 I. Kaliman,  J. Kussmann,  A. W. Lange,  Ka Un Lao,  D. S. Levine,  Jie Liu,  
 S. C. McKenzie,  A. F. Morrison,  K. Nanda,  F. Plasser,  D. R. Rehn,  
 M. L. Vidal,  Zhi-Qiang You,  Ying Zhu,  B. Alam,  B. Albrecht,  
 A. Aldossary,  E. Alguire,  J. H. Andersen,  V. Athavale,  D. Barton,  
 K. Begam,  A. Behn,  N. Bellonzi,  Y. A. Bernard,  E. J. Berquist,  
 H. Burton,  A. Carreras,  K. Carter-Fenk,  Romit Chakraborty,  
 Chandrima Chakravarty,  Junhan Chen,  A. D. Chien,  K. D. Closser,  
 V. Cofer-Shabica,  L. Cunha,  S. Dasgupta,  Jia Deng,  M. de Wergifosse,  
 M. Diedenhofen,  Hainam Do,  S. Ehlert,  Po-Tung Fang,  S. Fatehi,  
 Qingguo Feng,  T. Friedhoff,  B. Ganoe,  J. Gayvert,  Qinghui Ge,  
 G. Gidofalvi,  M. Goldey,  J. Gomes,  C. Gonzalez-Espinoza,  S. Gulania,  
 A. Gunina,  J. A. Gyamfi,  M. W. D. Hanson-Heine,  P. H. P. Harbach,  
 A. W. Hauser,  M. F. Herbst,  M. Hernandez Vera,  M. Hodecker,  
 Z. C. Holden,  S. Houck,  Xunkun Huang,  Kerwin Hui,  B. C. Huynh,  
 K. Ikeda,  M. Ivanov,  Hyunjun Ji,  Zuxin Jin,  Hanjie Jiang,  B. Kaduk,  
 S. Kaehler,  R. Kang,  K. Khistyaev,  Jaehoon Kim,  Yongbin Kim,  
 P. Klunzinger,  Z. Koczor-Benda,  Joong Hoon Koh,  D. Kosenkov,  
 Saikiran Kotaru,  L. Koulias,  T. Kowalczyk,  C. M. Krauter,  K. Kue,  
 A. Kunitsa,  T. Kus,  A. Landau,  K. V. Lawler,  D. Lefrancois,  S. Lehtola,  
 Rain Li,  Shaozhi Li,  Yi-Pei Li,  Jiashu Liang,  M. Liebenthal,  
 Hung-Hsuan Lin,  You-Sheng Lin,  Fenglai Liu,  Kuan-Yu Liu,  
 M. Loipersberger,  A. Luenser,  C. Malbon,  A. Manjanath,  P. Manohar,  
 E. Mansoor,  S. F. Manzer,  Shan-Ping Mao,  A. V. Marenich,  T. Markovich,  
 S. Mason,  F. Matz,  S. A. Maurer,  P. F. McLaughlin,  M. F. S. J. Menger,  
 J.-M. Mewes,  S. A. Mewes,  P. Morgante,  Mohammad Mostafanejad,  
 J. W. Mullinax,  K. J. Oosterbaan,  G. Paran,  V. Parravicini,  
 Alexander C. Paul,  Suranjan K. Paul,  F. Pavosevic,  Zheng Pei,  S. Prager,  
 E. I. Proynov,  E. Ramos,  B. Rana,  A. E. Rask,  A. Rettig,  R. M. Richard,  
 F. Rob,  E. Rossomme,  T. Scheele,  M. Scheurer,  M. Schneider,  
 P. E. Schneider,  N. Sergueev,  S. M. Sharada,  Hengyuan Shen,  
 W. Skomorowski,  D. W. Small,  C. J. Stein,  Yingli Su,  Yu-Chuan Su,  
 E. J. Sundstrom,  Zhen Tao,  J. Thirman,  Hung-Yi Tsai,  T. Tsuchimochi,  
 N. M. Tubman,  C. Utku,  S. P. Veccham,  O. Vydrov,  J. Wenzel,  
 Jonathan Wong,  J. Witte,  A. Yamada,  Chou-Hsun Yang,  Kun Yao,  
 S. Yeganeh,  S. R. Yost,  A. Zech,  F. Zeller,  Igor Ying Zhang,  
 Xing Zhang,  Yu Zhang,  D. Zuev,  A. Aspuru-Guzik,  A. T. Bell,  
 N. A. Besley,  K. B. Bravaya,  B. R. Brooks,  D. Casanova,  Jeng-Da Chai,  
 Hsing-Ta Chen,  S. Coriani,  C. J. Cramer,  A. E. DePrince, III,  
 R. A. DiStasio Jr.,  A. Dreuw,  B. D. Dunietz,  T. R. Furlani,  
 W. A. Goddard III,  S. Grimme,  S. Hammes-Schiffer,  T. Head-Gordon,  
 W. J. Hehre,  Chao-Ping Hsu,  T.-C. Jagau,  Yousung Jung,  A. Klamt,  
 Jing Kong,  D. S. Lambrecht,  Xiangyuan Li,  WanZhen Liang,  N. J. Mayhall,  
 C. W. McCurdy,  J. B. Neaton,  T. Neudecker,  C. Ochsenfeld,  
 J. A. Parkhill,  R. Peverati,  V. A. Rassolov,  Haisheng Ren,  Yihan Shao,  
 L. V. Slipchenko,  R. P. Steele,  J. E. Subotnik,  A. J. W. Thom,  
 A. Tkatchenko,  D. G. Truhlar,  T. Van Voorhis,  Fan Wang,  
 T. A. Wesolowski,  K. B. Whaley,  H. L. Woodcock III,  P. M. Zimmerman,  
 S. Faraji,  P. M. W. Gill,  M. Head-Gordon,  J. M. Herbert,  A. I. Krylov

 Contributors to earlier versions of Q-Chem not listed above: 
 R. D. Adamson,  B. Austin,  R. Baer,  J. Baker,  G. J. O. Beran,  
 K. Brandhorst,  S. T. Brown,  E. F. C. Byrd,  Arup K. Chakraborty,  
 G. K. L. Chan,  Chun-Min Chang,  Yunqing Chen,  C.-L. Cheng,  
 Siu Hung Chien,  D. M. Chipman,  D. L. Crittenden,  H. Dachsel,  
 R. J. Doerksen,  A. D. Dutoi,  R. G. Edgar,  J. Fosso-Tande,  
 L. Fusti-Molnar,  D. Ghosh,  A. Ghysels,  A. Golubeva-Zadorozhnaya,  
 J. Gonthier,  M. S. Gordon,  S. R. Gwaltney,  G. Hawkins,  J. E. Herr,  
 A. Heyden,  S. Hirata,  E. G. Hohenstein,  G. Kedziora,  F. J. Keil,  
 C. Kelley,  Jihan Kim,  R. A. King,  R. Z. Khaliullin,  P. P. Korambath,  
 W. Kurlancheek,  A. Laurent,  A. M. Lee,  M. S. Lee,  S. V. Levchenko,  
 Ching Yeh Lin,  D. Liotard,  E. Livshits,  R. C. Lochan,  I. Lotan,  
 L. A. Martinez-Martinez,  P. E. Maslen,  N. Nair,  D. P. O'Neill,  
 D. Neuhauser,  E. Neuscamman,  C. M. Oana,  R. Olivares-Amaya,  R. Olson,  
 T. M. Perrine,  B. Peters,  P. A. Pieniazek,  A. Prociuk,  Y. M. Rhee,  
 J. Ritchie,  M. A. Rohrdanz,  E. Rosta,  N. J. Russ,  H. F. Schaefer III,  
 M. W. Schmidt,  N. E. Schultz,  S. Sharma,  N. Shenvi,  C. D. Sherrill,  
 A. C. Simmonett,  A. Sodt,  T. Stein,  D. Stuck,  K. S. Thanthiriwatte,  
 V. Vanovschi,  L. Vogt,  Tao Wang,  A. Warshel,  M. A. Watson,  
 C. F. Williams,  Q. Wu,  X. Xu,  Jun Yang,  W. Zhang,  Yan Zhao

   Please cite Q-Chem as follows:
  "Software for the frontiers of quantum chemistry:
   An overview of developments in the Q-Chem 5 package"
   J. Chem. Phys. 155, 084801 (2021)
   https://doi.org/10.1063/5.0055522 (open access)

 Q-Chem 6.0.1 for Intel X86 EM64T Linux

 Parts of Q-Chem use Armadillo 9.900.5 (Nocturnal Misbehaviour).
 http://arma.sourceforge.net/

 Q-Chem begins on Fri Sep 22 16:46:08 2023  

 Host: atlas-100
0

     Scratch files written to ./qchem27785//
 Processing $rem in /scratch/abel/SOFTWARE/qchem/config/preferences:
 Processing $rem in /dipc/acebg/.qchemrc:

 Checking the input file for inconsistencies... 	...done.

--------------------------------------------------------------
User input:
--------------------------------------------------------------
$comment
 RAS-SF CALCULATION
$end

$molecule
 READ o2.molecule
$end

$rem
!**CALCULATION TYPE***     
JOBTYPE            sp    
EXCHANGE           HF
CORRELATION        RASCI    !RASCI=Casanova; RASCI2=Zimmerman
BASIS              def2-TZVP

!***SCF REFERENCE***
!SKIP_SCFMAN        FALSE
UNRESTRICTED       FALSE
!SCF_GUESS          core
!SCF_GUESS_MIX      FALSE
!SCF_GUESS_ALWAYS   FALSE
MAX_SCF_CYCLES     500
!SCF_CONVERGENCE    8
SCF_ALGORITHM      DIIS_GDM !DIIS,DM,DIIS_DM,GDM,DIIS_GDM,GD

!SYMMETRY           TRUE !use of symmetry for calculating integrals
!SYM_IGNORE         FALSE !turn off using symmetry
!SYM_TOL            5 !tolerance for determining point group

!THRESH             14
SCF_FINAL_PRINT     1 !0,1,2,3

!****RAS-SF****
RAS_ROOTS          20       !number of RAS-CI roots to be computed
SET_ITER           150     !number of iterations in RASCI
RAS_ELEC           8       !number of electrons in RAS2
RAS_ELEC_ALPHA     5       !spin-α electrons in RAS2 
RAS_ELEC_BETA      3      !spin-β electrons in RAS2

RAS_ACT            6       !number of orbitals in RAS2 
!RAS_ACT_ORB   [5,6,7,8,9,10]  !user-selected RAS2 orbitals
RAS_OCC            4       !number of orbitals in RAS1
!N_FROZEN_CORE      0     !Number of frozen core orbitals
!N_FROZEN_VIRTUAL   0      !Number of frozen virtual orbitals

RAS_DO_HOLE        TRUE   !presence of hole excitations in RAS-CI wave function
RAS_DO_PART        TRUE   !presence of particle excitations
!RAS_AMPL_PRINT     10     !threshold (×10 2 ) for the CI amplitudes

!RAS_GUESS_CS       0      !number of closed shell guess conﬁgurations
!RAS_SPIN_MULT      0      !spin multiplicity: 0=any, 2n+1=defined 
!RAS_SRDFT          FALSE  !short-range density functional RAS-CI
!RAS_NFRAG          0     !fragments of excitation analysis in RASCI

RAS_PRINT          2      !level of information
RAS_NATORB         TRUE   !computation of the natural orbital occupancies
!RAS_NATORB_STATE  0      !Saves NO of i RAS computed state in .fchk ﬁle
!RAS_FOD            TRUE

!****RAS-SOC****
CALC_SOC           TRUE   !calculate SOC for EOM-CC, RAS-CI, ADC, TDDFT/TDA and TDDFT
!RAS_SOC_2E        TRUE   !two-electron mean-ﬁeld contribution, default=true
RAS_SOC_SYM_DENS   TRUE   !averaging of α and β densities

!****MEMORY****
MEM_TOTAL          60000 !Default 2000 MB
MEM_STATIC         16000  !Default 64 MB

!**Molecular Properties and Analysis **                                                                                          
!GUI                2
STATE_ANALYSIS     TRUE
MOLDEN_FORMAT      TRUE
PRINT_ORBITALS     20
$end                                           

--------------------------------------------------------------
 ----------------------------------------------------------------
             Standard Nuclear Orientation (Angstroms)
    I     Atom           X                Y                Z
 ----------------------------------------------------------------
    1      O       0.0000000000     0.0000000000    -0.6037600000
    2      O       0.0000000000     0.0000000000     0.6037600000
 ----------------------------------------------------------------
 Molecular Point Group                 D2h   NOp =  8
 Largest Abelian Subgroup              D2h   NOp =  8
 Nuclear Repulsion Energy =          28.04702323 hartrees
 There are        9 alpha and        7 beta electrons
 Requested basis set is def2-TZVP
 There are 22 shells and 62 basis functions

 Q-Chem warning in module libmdc/get_mega.C, line 167:

 Allowed MEM_STATIC has been capped at MEM_STATIC=8191.
 Reduce the value of MEM_STATIC to silence this warning.


 Total QAlloc Memory Limit  60000 MB
 Mega-Array Size      8007 MB
 MEM_STATIC part      8191 MB


                       Distance Matrix (Angstroms)
             O (  1)
   O (  2)  1.207520
 
 A cutoff of  1.0D-09 yielded    252 shell pairs
 There are      2052 function pairs (      2795 Cartesian)
 Smallest overlap matrix eigenvalue = 1.88E-03

 Scale SEOQF with 1.000000e+00/1.000000e+00/1.000000e+00

 Standard Electronic Orientation quadrupole field applied
 Nucleus-field energy     =    -0.0000000062 hartrees
 Guess from superposition of atomic densities
 Warning:  Energy on first SCF cycle will be non-variational
 SAD guess density has 16.000000 electrons

 -----------------------------------------------------------------------
  General SCF calculation program by
  Eric Jon Sundstrom, Paul Horn, Yuezhi Mao, Dmitri Zuev, Alec White,
  David Stuck, Shaama M.S., Shane Yost, Joonho Lee, David Small,
  Daniel Levine, Susi Lehtola, Hugh Burton, Evgeny Epifanovsky,
  Bang C. Huynh
 -----------------------------------------------------------------------
 Hartree-Fock
 Orthonormalizing orbitals
 A restricted open-shell SCF calculation will be
 performed using DIIS, GDM
 SCF converges when RMS gradient is below 1.0e-05
 ---------------------------------------
  Cycle       Energy         DIIS error
 ---------------------------------------
    1    -146.1440235057      2.09e-01  
    2    -149.3699434202      7.03e-02  
    3    -149.4810760454      5.80e-02  
    4    -149.6571977300      7.13e-03  Done DIIS. Switching to GDM
 ---------------------------------------
  Cycle       Energy        RMS Gradient
 ---------------------------------------
    1    -149.6571977300      3.25e-02   Normal BFGS step
    2    -149.6598857901      1.38e-02   Normal BFGS step
    3    -149.6602952910      1.20e-03   Normal BFGS step
    4    -149.6602995687      2.83e-04   Normal BFGS step
    5    -149.6602997700      2.04e-05   Normal BFGS step
    6    -149.6602997746      3.94e-06  Convergence criterion met
The disked orbital energies are calculated using alpha and beta Focks
 ---------------------------------------
 Alpha HF Exchange    Energy =  -8.91933964526612
 Beta HF Exchange     Energy =  -7.37145753586523
 Nuclear Attraction   Energy =   0.00000000000000
 One-Electron (alpha) Energy = -140.42924690364737
 One-Electron (beta)  Energy = -121.21465949628116
 Total Coulomb        Energy = 100.22738058228362
 Final Alpha MO Eigenvalues
            1           2           3           4           5           6
    1 -20.7505221 -20.7499108  -1.7033387  -1.1885854  -0.7698400  -0.8219753
            7           8           9          10          11          12
    1  -0.8219752  -0.5321271  -0.5321271   0.3381557   0.4686970   0.5152922
           13          14          15          16          17          18
    1   0.5152922   0.5730151   0.6215618   0.6215618   0.6457637   0.8987179
           19          20          21          22          23          24
    1   1.4427469   1.4427469   1.5324709   1.5324709   1.8586974   1.8586974
           25          26          27          28          29          30
    1   2.0960140   2.3808381   2.3808381   2.4271521   2.7563304   2.7563304
           31          32          33          34          35          36
    1   2.8485613   3.0816949   3.1066527   3.1066527   3.2770698   4.6313508
           37          38          39          40          41          42
    1   4.9767064   4.9767064   5.0273381   5.0273381   5.3131641   5.3131641
           43          44          45          46          47          48
    1   5.4130718   5.5602967   5.5602967   6.1176370   6.1176370   6.4971800
           49          50          51          52          53          54
    1   6.4971800   6.7116511   6.7116511   6.7609164   6.7609164   6.8255015
           55          56          57          58          59          60
    1   6.8759073   6.8759073   7.6553831   7.6553831   7.9313719   9.1362520
           61          62
    1  44.4809612  45.0219007
 Final Beta MO Eigenvalues
            1           2           3           4           5           6
    1 -20.7094723 -20.7081787  -1.5953836  -1.0080553  -0.7010889  -0.5890796
            7           8           9          10          11          12
    1  -0.5890795   0.1099457   0.1099454   0.3740181   0.4883126   0.5559881
           13          14          15          16          17          18
    1   0.5559881   0.5792397   0.6665328   0.6665325   0.6939138   0.9217086
           19          20          21          22          23          24
    1   1.5041446   1.5041446   1.5982027   1.5982027   1.9538404   1.9538404
           25          26          27          28          29          30
    1   2.1298458   2.4396662   2.4396662   2.4538985   2.8527837   2.8527837
           31          32          33          34          35          36
    1   2.8919417   3.1238940   3.1890472   3.1890472   3.3098011   4.6615023
           37          38          39          40          41          42
    1   5.0153634   5.0153634   5.0587294   5.0587294   5.3708129   5.3708129
           43          44          45          46          47          48
    1   5.4534938   5.6229903   5.6229903   6.1691011   6.1691011   6.6015064
           49          50          51          52          53          54
    1   6.6015064   6.8083983   6.8083983   6.8212055   6.8212055   6.8670190
           55          56          57          58          59          60
    1   6.9315659   6.9315659   7.6857587   7.6857587   7.9605243   9.1618089
           61          62
    1  44.5040185  45.0441366
 SCF time:   CPU 1.58s  wall 2.00s 
<S^2> =          2.000000000
 SCF   energy in the final basis set =     -149.6602997746
 Total energy in the final basis set =     -149.6602997746
  
     ##========================================##
     ||                                        ||
     ||              R A S M A N 2             ||
     ||________________________________________||
     ||                                        ||
     ||  Author:                               ||
     ||                                        ||
     ||        David Casanova (2010)           ||
     ||                                        ||
     ##========================================##
  
Setting single-point xc-functionals (if necessary)

  ***************************************************
  *  RAS-CI Dimensions:                             *
  *                                                 *
  *  Active Elec.:   8 ( 5, 3)   Active Orb.:   6   *
  *  Doubly Occ. :   4           Doubly Vir.:  52   *
  *  Frozen Occ. :   0           Frozen Vir.:   0   *
  *                                                 *
  *  Total CI configurations:     20840             * 
  *    Active configurations:       120             * 
  *      Hole configurations:       440             * 
  *  Particle configurations:     20280             * 
  *                                                 *
  *   Requested states:       20                    *
  *  Spin multiplicity: Any multiplicity            *
  *                                                 *
  ***************************************************
-----------------------------------------
    Memory requirements of RASCI

 Each CI-vector requires      0.16 MiB 
 Max. subspace vectors           3000      

 Reduced Lists                0.00 MiB 
 Excitation Lists             0.00 MiB 
 Excitation Lists Sign        0.00 MiB 
 CI-space (Max)             548.86 MiB 
 Integrals                    2.59 MiB 
 Memory required (Max)      548.86 MiB 
 Memory available          7811.55 MiB 

    Disk requirements of RASCI

 Fock matrix                  0.06 MiB 
 2-electron integrals         3.31 MiB 
 CI-space                   953.98 MiB 
 Disk required              957.35 MiB 
-----------------------------------------
  
RAS1 HF-like energy:           -129.0590489554
 Computing integrals
 Computing J and K matrices
 Computing addressing
 Making amplitude guesses
 
Direct CI diagonalization
 ---------------------------------------------------
 Iter    Rts Conv    Rts Left    Ttl Dev     Max Dev
 ---------------------------------------------------
   1         0          20      0.062552    0.004520
   2         0          20      0.034097    0.002430
   3         0          20      0.028024    0.002180
   4         0          20      0.020576    0.001933
   5         0          20      0.019854    0.002790
   6         0          20      0.016370    0.002460
   7         0          20      0.012649    0.002781
   8         0          20      0.019422    0.005472
   9         0          20      0.014636    0.003908
  10         0          20      0.009102    0.002356
  11         0          20      0.008359    0.002082
  12         0          20      0.005573    0.001358
  13         0          20      0.004435    0.000935
  14         0          20      0.006219    0.002702
  15         0          20      0.006495    0.002049
  16         0          20      0.006740    0.001769
  17         1          19      0.006871    0.001644
  18         1          19      0.005587    0.001165
  19         1          19      0.005692    0.001340
  20         4          16      0.006552    0.001638
  21         7          13      0.008513    0.002480
  22         7          13      0.009337    0.002023
  23         7          13      0.005140    0.001201
  24         7          13      0.003887    0.000865
  25        11           9      0.003505    0.000769
  26        11           9      0.002681    0.000616
  27        12           8      0.002016    0.000474
  28        12           8      0.001442    0.000342
  29        12           8      0.001344    0.000597
  30        12           8      0.001051    0.000446
  31        12           8      0.000775    0.000355
  32        12           8      0.000632    0.000375
  33        12           8      0.000494    0.000323
  34        12           8      0.000488    0.000354
  35        14           6      0.000291    0.000199
  36        15           5      0.000174    0.000113
  37        15           5      0.000162    0.000121
  38        15           5      0.000125    0.000092
  39        15           5      0.000096    0.000070
  40        15           5      0.000078    0.000059
  41        15           5      0.000058    0.000044
  42        17           3      0.000075    0.000064
  43        18           2      0.000093    0.000081
  44        19           1      0.000068    0.000058
  45        19           1      0.000100    0.000090
  46        19           1      0.000130    0.000120
  47        19           1      0.000145    0.000135
  48        19           1      0.000149    0.000139
  49        19           1      0.000083    0.000072
  50        19           1      0.000063    0.000053
  51        19           1      0.000071    0.000061
  52        19           1      0.000043    0.000032
  53        19           1      0.000031    0.000020
  54        19           1      0.000032    0.000022
  55        19           1      0.000025    0.000015
  56        19           1      0.000023    0.000013
  57        19           1      0.000017    0.000007
  58        19           1      0.000015    0.000005
  59        19           1      0.000015    0.000005
  60        19           1      0.000013    0.000003
  61        19           1      0.000013    0.000002
  62        19           1      0.000012    0.000001
  63        20           0      0.000011    0.000001    Roots Converged
 ---------------------------------------------------
   
**************************************************
 RAS-CI total energy for state   1:   -149.782253442289
  Excitation energy (eV) =  0.000000000000
  State symmetry: B1g   (D2h      )
  <S^2>      :  2.0000
  Dipole Moment:    0.0000 X     0.0000 Y     0.0000 Z
 NATURAL OCCUPATION NUMBERS (higher than 1.0E-05)
            1           2           3           4           5           6
    1   2.0000000   1.9999995   1.9985657   1.9983536   1.9749469   1.9660005
            7           8           9          10          11          12
    1   1.9660005   1.0242388   1.0242388   0.0236094   0.0065379   0.0065379
           13          14          15          16          17          18
    1   0.0045736   0.0015468   0.0015468   0.0007373   0.0003984   0.0003984
           19          20          21          22          23          24
    1   0.0002837   0.0002837   0.0001277   0.0001217   0.0001217   0.0001150
           25          26          27          28          29          30
    1   0.0001150   0.0000914   0.0000529   0.0000529   0.0000422   0.0000422
           31          32          33          34          35          36
    1   0.0000377   0.0000330   0.0000330   0.0000258   0.0000258   0.0000258
           37          38          39          40          41          42
    1   0.0000185   0.0000185   0.0000164   0.0000164   0.0000113   0.0000113
           43          44
    1   0.0000108   0.0000108
 Created directory ./qchem27785/plots

  Amplitudes : 
  
 | HOLE  | ALPHA  | BETA   | PART  |    AMPLITUDE 
--------------------------------------------------
 |       | 111110 | 111000 |       |     9.7161950927901E-01
 |       | 111110 | 100110 |       |     1.0923524546970E-01
--------------------------------------------------
*** Contributions RASCI wfn    Active:  96.13
                                 Hole:   0.34
                                 Part:   3.53

      Mulliken population analysis 
 ---------------------------------------------------
   Atom    Charge (a.u.)   Spin (a.u.)  
 ---------------------------------------------------
   1  O   -0.000000        1.000000 
   2  O   -0.000000        1.000000 
 ---------------------------------------------------
   Sum:   -0.000000        2.000000 
 ---------------------------------------------------
 
  
 NATURAL OCCUPATION NUMBERS (higher than 1.0E-05)
            1           2           3           4           5           6
    1   2.0000000   1.9999995   1.9985657   1.9983536   1.9749469   1.9660005
            7           8           9          10          11          12
    1   1.9660005   1.0242388   1.0242388   0.0236094   0.0065379   0.0065379
           13          14          15          16          17          18
    1   0.0045736   0.0015468   0.0015468   0.0007373   0.0003984   0.0003984
           19          20          21          22          23          24
    1   0.0002837   0.0002837   0.0001277   0.0001217   0.0001217   0.0001150
           25          26          27          28          29          30
    1   0.0001150   0.0000914   0.0000529   0.0000529   0.0000422   0.0000422
           31          32          33          34          35          36
    1   0.0000377   0.0000330   0.0000330   0.0000258   0.0000258   0.0000258
           37          38          39          40          41          42
    1   0.0000185   0.0000185   0.0000164   0.0000164   0.0000113   0.0000113
           43          44
    1   0.0000108   0.0000108
  
*** Unpaired Electrons
 Yamaguchi Nd:         2.28
 Head-Gordon Nu:       2.10
 Head-Gordon Nu_nl:    2.01
  
**************************************************
 RAS-CI total energy for state   2:   -149.533949674857
  Excitation energy (eV) =  6.756689281435
  State symmetry: Au    (D2h      )
  <S^2>      :  2.0000
  Dipole Moment:    0.0000 X    -0.0000 Y     0.0000 Z
  Trans. Moment:   -0.0000 X    -0.0000 Y    -0.0000 Z
  Strength   :  0.000000
  Natural transition orbitals ( 1 -> 2 ):
   e-/hole pair  1 alpha:  ampl =  0.022643 (  0.1%)   [6 : 7]
   e-/hole pair  2 alpha:  ampl =  0.022642 (  0.1%)   [5 : 8]
   e-/hole pair  1 beta :  ampl =  0.687397 ( 47.3%)   [6 : 7]
   e-/hole pair  2 beta :  ampl =  0.687394 ( 47.3%)   [5 : 8]
   Sum of square amplitudes: 0.96

 NATURAL OCCUPATION NUMBERS (higher than 1.0E-05)
            1           2           3           4           5           6
    1   2.0000000   2.0000000   1.9992555   1.9983610   1.9907919   1.4995537
            7           8           9          10          11          12
    1   1.4995502   1.4959234   1.4959199   0.0107119   0.0018324   0.0013267
           13          14          15          16          17          18
    1   0.0013267   0.0008393   0.0008392   0.0006477   0.0004818   0.0004059
           19          20          21          22          23          24
    1   0.0003426   0.0003218   0.0003218   0.0002579   0.0001032   0.0001032
           25          26          27          28          29          30
    1   0.0000968   0.0000968   0.0000699   0.0000699   0.0000641   0.0000632
           31          32          33          34          35          36
    1   0.0000548   0.0000427   0.0000335   0.0000292   0.0000266   0.0000266
           37          38          39          40
    1   0.0000203   0.0000186   0.0000163   0.0000163

  Amplitudes : 
  
 | HOLE  | ALPHA  | BETA   | PART  |    AMPLITUDE 
--------------------------------------------------
 |       | 111110 | 110010 |       |     7.0076142021200E-01
 |       | 111110 | 101100 |       |    -7.0076138816240E-01
--------------------------------------------------
*** Contributions RASCI wfn    Active:  98.35
                                 Hole:   0.25
                                 Part:   1.39

      Mulliken population analysis 
 ---------------------------------------------------
   Atom    Charge (a.u.)   Spin (a.u.)  
 ---------------------------------------------------
   1  O   -0.000000        1.000000 
   2  O   -0.000000        1.000000 
 ---------------------------------------------------
   Sum:   -0.000000        2.000000 
 ---------------------------------------------------
 
  
 NATURAL OCCUPATION NUMBERS (higher than 1.0E-05)
            1           2           3           4           5           6
    1   2.0000000   2.0000000   1.9992555   1.9983610   1.9907919   1.4995537
            7           8           9          10          11          12
    1   1.4995502   1.4959234   1.4959199   0.0107119   0.0018324   0.0013267
           13          14          15          16          17          18
    1   0.0013267   0.0008393   0.0008392   0.0006477   0.0004818   0.0004059
           19          20          21          22          23          24
    1   0.0003426   0.0003218   0.0003218   0.0002579   0.0001032   0.0001032
           25          26          27          28          29          30
    1   0.0000968   0.0000968   0.0000699   0.0000699   0.0000641   0.0000632
           31          32          33          34          35          36
    1   0.0000548   0.0000427   0.0000335   0.0000292   0.0000266   0.0000266
           37          38          39          40
    1   0.0000203   0.0000186   0.0000163   0.0000163
  
*** Unpaired Electrons
 Yamaguchi Nd:         3.07
 Head-Gordon Nu:       2.04
 Head-Gordon Nu_nl:    2.26
  
**************************************************
 RAS-CI total energy for state   3:   -149.533949673256
  Excitation energy (eV) =  6.756689324988
  State symmetry: B1u   (D2h      )
  <S^2>      :  2.0000
  Dipole Moment:    0.0000 X     0.0000 Y     0.0000 Z
  Trans. Moment:   -0.0000 X    -0.0000 Y    -0.0000 Z
  Strength   :  0.000000
  Natural transition orbitals ( 1 -> 3 ):
   e-/hole pair  1 alpha:  ampl =  0.022656 (  0.1%)   [6 : 7]
   e-/hole pair  2 alpha:  ampl =  0.022656 (  0.1%)   [5 : 8]
   e-/hole pair  1 beta :  ampl =  0.687396 ( 47.3%)   [6 : 7]
   e-/hole pair  2 beta :  ampl =  0.687395 ( 47.3%)   [5 : 8]
   Sum of square amplitudes: 0.96

 NATURAL OCCUPATION NUMBERS (higher than 1.0E-05)
            1           2           3           4           5           6
    1   2.0000000   2.0000000   1.9992555   1.9983609   1.9907926   1.4995527
            7           8           9          10          11          12
    1   1.4995515   1.4959212   1.4959201   0.0107115   0.0018327   0.0013273
           13          14          15          16          17          18
    1   0.0013273   0.0008393   0.0008393   0.0006474   0.0004817   0.0004059
           19          20          21          22          23          24
    1   0.0003426   0.0003220   0.0003220   0.0002579   0.0001031   0.0001031
           25          26          27          28          29          30
    1   0.0000968   0.0000968   0.0000699   0.0000699   0.0000641   0.0000632
           31          32          33          34          35          36
    1   0.0000548   0.0000427   0.0000335   0.0000292   0.0000266   0.0000266
           37          38          39          40
    1   0.0000203   0.0000186   0.0000163   0.0000163

  Amplitudes : 
  
 | HOLE  | ALPHA  | BETA   | PART  |    AMPLITUDE 
--------------------------------------------------
 |       | 111110 | 110100 |       |     7.0076176379586E-01
 |       | 111110 | 101010 |       |     7.0076106177250E-01
--------------------------------------------------
*** Contributions RASCI wfn    Active:  98.35
                                 Hole:   0.25
                                 Part:   1.39

      Mulliken population analysis 
 ---------------------------------------------------
   Atom    Charge (a.u.)   Spin (a.u.)  
 ---------------------------------------------------
   1  O   -0.000000        1.000000 
   2  O   -0.000000        1.000000 
 ---------------------------------------------------
   Sum:   -0.000000        2.000000 
 ---------------------------------------------------
 
  
 NATURAL OCCUPATION NUMBERS (higher than 1.0E-05)
            1           2           3           4           5           6
    1   2.0000000   2.0000000   1.9992555   1.9983609   1.9907926   1.4995527
            7           8           9          10          11          12
    1   1.4995515   1.4959212   1.4959201   0.0107115   0.0018327   0.0013273
           13          14          15          16          17          18
    1   0.0013273   0.0008393   0.0008393   0.0006474   0.0004817   0.0004059
           19          20          21          22          23          24
    1   0.0003426   0.0003220   0.0003220   0.0002579   0.0001031   0.0001031
           25          26          27          28          29          30
    1   0.0000968   0.0000968   0.0000699   0.0000699   0.0000641   0.0000632
           31          32          33          34          35          36
    1   0.0000548   0.0000427   0.0000335   0.0000292   0.0000266   0.0000266
           37          38          39          40
    1   0.0000203   0.0000186   0.0000163   0.0000163
  
*** Unpaired Electrons
 Yamaguchi Nd:         3.07
 Head-Gordon Nu:       2.04
 Head-Gordon Nu_nl:    2.26
  
**************************************************
 RAS-CI total energy for state   4:   -149.528456469325
  Excitation energy (eV) =  6.906167009140
  State symmetry: B1u   (D2h      )
  <S^2>      :  2.0000
  Dipole Moment:    0.0000 X    -0.0000 Y     0.0000 Z
  Trans. Moment:   -0.0000 X    -0.0000 Y    -0.0000 Z
  Strength   :  0.000000
  Natural transition orbitals ( 1 -> 4 ):
   e-/hole pair  1 alpha:  ampl =  0.002906 (  0.0%)   [6 : 7]
   e-/hole pair  2 alpha:  ampl =  0.002906 (  0.0%)   [5 : 8]
   e-/hole pair  1 beta :  ampl =  0.687124 ( 47.2%)   [6 : 7]
   e-/hole pair  2 beta :  ampl =  0.687121 ( 47.2%)   [5 : 8]
   Sum of square amplitudes: 0.96

 NATURAL OCCUPATION NUMBERS (higher than 1.0E-05)
            1           2           3           4           5           6
    1   2.0000000   2.0000000   1.9992533   1.9982778   1.9907284   1.4992405
            7           8           9          10          11          12
    1   1.4992369   1.4966008   1.4965972   0.0108639   0.0018271   0.0009055
           13          14          15          16          17          18
    1   0.0009055   0.0008442   0.0008442   0.0006512   0.0004775   0.0004775
           19          20          21          22          23          24
    1   0.0003255   0.0003255   0.0002606   0.0002606   0.0001211   0.0001211
           25          26          27          28          29          30
    1   0.0001166   0.0001166   0.0000691   0.0000691   0.0000635   0.0000607
           31          32          33          34          35          36
    1   0.0000607   0.0000596   0.0000441   0.0000301   0.0000270   0.0000270
           37          38          39          40
    1   0.0000206   0.0000206   0.0000168   0.0000168

  Amplitudes : 
  
 | HOLE  | ALPHA  | BETA   | PART  |    AMPLITUDE 
--------------------------------------------------
 |       | 111110 | 110100 |       |    -7.0091088351857E-01
 |       | 111110 | 101010 |       |     7.0091157312863E-01
--------------------------------------------------
*** Contributions RASCI wfn    Active:  98.40
                                 Hole:   0.26
                                 Part:   1.34

      Mulliken population analysis 
 ---------------------------------------------------
   Atom    Charge (a.u.)   Spin (a.u.)  
 ---------------------------------------------------
   1  O   -0.000000        1.000000 
   2  O   -0.000000        1.000000 
 ---------------------------------------------------
   Sum:   -0.000000        2.000000 
 ---------------------------------------------------
 
  
 NATURAL OCCUPATION NUMBERS (higher than 1.0E-05)
            1           2           3           4           5           6
    1   2.0000000   2.0000000   1.9992533   1.9982778   1.9907284   1.4992405
            7           8           9          10          11          12
    1   1.4992369   1.4966008   1.4965972   0.0108639   0.0018271   0.0009055
           13          14          15          16          17          18
    1   0.0009055   0.0008442   0.0008442   0.0006512   0.0004775   0.0004775
           19          20          21          22          23          24
    1   0.0003255   0.0003255   0.0002606   0.0002606   0.0001211   0.0001211
           25          26          27          28          29          30
    1   0.0001166   0.0001166   0.0000691   0.0000691   0.0000635   0.0000607
           31          32          33          34          35          36
    1   0.0000607   0.0000596   0.0000441   0.0000301   0.0000270   0.0000270
           37          38          39          40
    1   0.0000206   0.0000206   0.0000168   0.0000168
  
*** Unpaired Electrons
 Yamaguchi Nd:         3.07
 Head-Gordon Nu:       2.04
 Head-Gordon Nu_nl:    2.26
  
**************************************************
 RAS-CI total energy for state   5:   -149.469506320100
  Excitation energy (eV) =  8.510282184391
  Warning: not all configurations have same symmetry
  State symmetry: *B2g   (D2h      )
  <S^2>      :  2.0000
  Dipole Moment:    0.0000 X     0.0000 Y    -0.0000 Z
  Trans. Moment:   -0.0000 X    -0.0000 Y    -0.0000 Z
  Strength   :  0.000000
  Natural transition orbitals ( 1 -> 5 ):
   e-/hole pair  1 alpha:  ampl =  0.026420 (  0.1%)   [6 : 7]
   e-/hole pair  2 alpha:  ampl =  0.015888 (  0.0%)   [5 : 8]
   e-/hole pair  1 beta :  ampl =  0.967922 ( 93.7%)   [6 : 7]
   e-/hole pair  2 beta :  ampl =  0.066867 (  0.4%)   [5 : 8]
   Sum of square amplitudes: 0.94

 NATURAL OCCUPATION NUMBERS (higher than 1.0E-05)
            1           2           3           4           5           6
    1   1.9999997   1.9999997   1.9988808   1.9953696   1.9894142   1.9845850
            7           8           9          10          11          12
    1   1.9619058   1.0268005   1.0098072   0.0116067   0.0061655   0.0044649
           13          14          15          16          17          18
    1   0.0037678   0.0016613   0.0012568   0.0010388   0.0006646   0.0005059
           19          20          21          22          23          24
    1   0.0004895   0.0003600   0.0002036   0.0001571   0.0001547   0.0001130
           25          26          27          28          29          30
    1   0.0001119   0.0000547   0.0000540   0.0000472   0.0000372   0.0000366
           31          32          33          34          35          36
    1   0.0000344   0.0000308   0.0000292   0.0000288   0.0000282   0.0000247
           37          38          39          40
    1   0.0000224   0.0000210   0.0000171   0.0000101

  Amplitudes : 
  
 | HOLE  | ALPHA  | BETA   | PART  |    AMPLITUDE 
--------------------------------------------------
 |       | 111110 | 011100 |       |     7.3806321546198E-01
 |       | 111110 | 011010 |       |    -6.3855848422446E-01
--------------------------------------------------
*** Contributions RASCI wfn    Active:  95.47
                                 Hole:   1.72
                                 Part:   2.81

      Mulliken population analysis 
 ---------------------------------------------------
   Atom    Charge (a.u.)   Spin (a.u.)  
 ---------------------------------------------------
   1  O   -0.000000        1.000000 
   2  O   -0.000000        1.000000 
 ---------------------------------------------------
   Sum:   -0.000000        2.000000 
 ---------------------------------------------------
 
  
 NATURAL OCCUPATION NUMBERS (higher than 1.0E-05)
            1           2           3           4           5           6
    1   1.9999997   1.9999997   1.9988808   1.9953696   1.9894142   1.9845850
            7           8           9          10          11          12
    1   1.9619058   1.0268005   1.0098072   0.0116067   0.0061655   0.0044649
           13          14          15          16          17          18
    1   0.0037678   0.0016613   0.0012568   0.0010388   0.0006646   0.0005059
           19          20          21          22          23          24
    1   0.0004895   0.0003600   0.0002036   0.0001571   0.0001547   0.0001130
           25          26          27          28          29          30
    1   0.0001119   0.0000547   0.0000540   0.0000472   0.0000372   0.0000366
           31          32          33          34          35          36
    1   0.0000344   0.0000308   0.0000292   0.0000288   0.0000282   0.0000247
           37          38          39          40
    1   0.0000224   0.0000210   0.0000171   0.0000101
  
*** Unpaired Electrons
 Yamaguchi Nd:         2.20
 Head-Gordon Nu:       2.07
 Head-Gordon Nu_nl:    2.01
  
**************************************************
 RAS-CI total energy for state   6:   -149.469506265528
  Excitation energy (eV) =  8.510283669348
  Warning: not all configurations have same symmetry
  State symmetry: *B2g   (D2h      )
  <S^2>      :  2.0000
  Dipole Moment:    0.0000 X    -0.0000 Y    -0.0000 Z
  Trans. Moment:    0.0000 X     0.0000 Y    -0.0000 Z
  Strength   :  0.000000
  Natural transition orbitals ( 1 -> 6 ):
   e-/hole pair  1 alpha:  ampl =  0.026420 (  0.1%)   [6 : 7]
   e-/hole pair  2 alpha:  ampl =  0.015888 (  0.0%)   [5 : 8]
   e-/hole pair  1 beta :  ampl =  0.967922 ( 93.7%)   [6 : 7]
   e-/hole pair  2 beta :  ampl =  0.066867 (  0.4%)   [5 : 8]
   Sum of square amplitudes: 0.94

 NATURAL OCCUPATION NUMBERS (higher than 1.0E-05)
            1           2           3           4           5           6
    1   1.9999997   1.9999997   1.9988808   1.9953696   1.9894142   1.9845850
            7           8           9          10          11          12
    1   1.9619059   1.0268005   1.0098072   0.0116067   0.0061655   0.0044649
           13          14          15          16          17          18
    1   0.0037678   0.0016613   0.0012568   0.0010388   0.0006646   0.0005059
           19          20          21          22          23          24
    1   0.0004895   0.0003600   0.0002036   0.0001571   0.0001547   0.0001130
           25          26          27          28          29          30
    1   0.0001119   0.0000547   0.0000540   0.0000472   0.0000372   0.0000366
           31          32          33          34          35          36
    1   0.0000344   0.0000308   0.0000292   0.0000288   0.0000282   0.0000247
           37          38          39          40
    1   0.0000224   0.0000210   0.0000171   0.0000101

  Amplitudes : 
  
 | HOLE  | ALPHA  | BETA   | PART  |    AMPLITUDE 
--------------------------------------------------
 |       | 111110 | 011100 |       |     6.3855844694262E-01
 |       | 111110 | 011010 |       |     7.3806318799558E-01
--------------------------------------------------
*** Contributions RASCI wfn    Active:  95.47
                                 Hole:   1.72
                                 Part:   2.81

      Mulliken population analysis 
 ---------------------------------------------------
   Atom    Charge (a.u.)   Spin (a.u.)  
 ---------------------------------------------------
   1  O   -0.000000        1.000000 
   2  O   -0.000000        1.000000 
 ---------------------------------------------------
   Sum:   -0.000000        2.000000 
 ---------------------------------------------------
 
  
 NATURAL OCCUPATION NUMBERS (higher than 1.0E-05)
            1           2           3           4           5           6
    1   1.9999997   1.9999997   1.9988808   1.9953696   1.9894142   1.9845850
            7           8           9          10          11          12
    1   1.9619059   1.0268005   1.0098072   0.0116067   0.0061655   0.0044649
           13          14          15          16          17          18
    1   0.0037678   0.0016613   0.0012568   0.0010388   0.0006646   0.0005059
           19          20          21          22          23          24
    1   0.0004895   0.0003600   0.0002036   0.0001571   0.0001547   0.0001130
           25          26          27          28          29          30
    1   0.0001119   0.0000547   0.0000540   0.0000472   0.0000372   0.0000366
           31          32          33          34          35          36
    1   0.0000344   0.0000308   0.0000292   0.0000288   0.0000282   0.0000247
           37          38          39          40
    1   0.0000224   0.0000210   0.0000171   0.0000101
  
*** Unpaired Electrons
 Yamaguchi Nd:         2.20
 Head-Gordon Nu:       2.07
 Head-Gordon Nu_nl:    2.01
  
**************************************************
 RAS-CI total energy for state   7:   -149.447452193772
  Excitation energy (eV) =  9.110405495073
  State symmetry: Au    (D2h      )
  <S^2>      :  2.0000
  Dipole Moment:    0.0000 X    -0.0000 Y     0.0000 Z
  Trans. Moment:    0.0000 X     0.0000 Y     0.9088 Z
  Strength   :  0.184347
  Natural transition orbitals ( 1 -> 7 ):
   e-/hole pair  1 alpha:  ampl =  0.191021 (  3.6%)   [6 : 7]
   e-/hole pair  2 alpha:  ampl =  0.117897 (  1.4%)   [5 : 8]
   e-/hole pair  1 beta :  ampl =  0.657500 ( 43.2%)   [6 : 7]
   e-/hole pair  2 beta :  ampl =  0.657500 ( 43.2%)   [5 : 8]
   Sum of square amplitudes: 0.98

 NATURAL OCCUPATION NUMBERS (higher than 1.0E-05)
            1           2           3           4           5           6
    1   2.0000000   1.9999992   1.9987804   1.9970710   1.9087875   1.5330067
            7           8           9          10          11          12
    1   1.5330060   1.4348205   1.4348200   0.0921964   0.0227111   0.0227108
           13          14          15          16          17          18
    1   0.0065238   0.0065233   0.0056652   0.0005541   0.0005541   0.0004460
           19          20          21          22          23          24
    1   0.0002993   0.0002993   0.0001719   0.0001719   0.0001204   0.0000909
           25          26          27          28          29          30
    1   0.0000908   0.0000799   0.0000670   0.0000670   0.0000616   0.0000382
           31          32          33          34          35          36
    1   0.0000382   0.0000369   0.0000255   0.0000255   0.0000208   0.0000208
           37          38          39          40
    1   0.0000194   0.0000194   0.0000118   0.0000103

  Amplitudes : 
  
 | HOLE  | ALPHA  | BETA   | PART  |    AMPLITUDE 
--------------------------------------------------
 |       | 111110 | 110010 |       |     6.4815183346537E-01
 |       | 111110 | 101100 |       |     6.4815185962988E-01
 |       | 111110 | 011001 |       |    -1.0646060698909E-01
 |       | 011111 | 111000 |       |    -1.3120732395486E-01
 |       | 111100 | 111000 |  13   |     1.1554576200096E-01
 |       | 111010 | 111000 |  12   |    -1.1554745966516E-01
 |       | 011110 | 111000 |  17   |    -1.5389218893406E-01
 |       | 111110 | 011000 |  17   |    -1.2163896321358E-01
--------------------------------------------------
*** Contributions RASCI wfn    Active:  87.41
                                 Hole:   0.58
                                 Part:  12.01

      Mulliken population analysis 
 ---------------------------------------------------
   Atom    Charge (a.u.)   Spin (a.u.)  
 ---------------------------------------------------
   1  O   -0.000000        1.000000 
   2  O   -0.000000        1.000000 
 ---------------------------------------------------
   Sum:   -0.000000        2.000000 
 ---------------------------------------------------
 
  
 NATURAL OCCUPATION NUMBERS (higher than 1.0E-05)
            1           2           3           4           5           6
    1   2.0000000   1.9999992   1.9987804   1.9970710   1.9087875   1.5330067
            7           8           9          10          11          12
    1   1.5330060   1.4348205   1.4348200   0.0921964   0.0227111   0.0227108
           13          14          15          16          17          18
    1   0.0065238   0.0065233   0.0056652   0.0005541   0.0005541   0.0004460
           19          20          21          22          23          24
    1   0.0002993   0.0002993   0.0001719   0.0001719   0.0001204   0.0000909
           25          26          27          28          29          30
    1   0.0000908   0.0000799   0.0000670   0.0000670   0.0000616   0.0000382
           31          32          33          34          35          36
    1   0.0000382   0.0000369   0.0000255   0.0000255   0.0000208   0.0000208
           37          38          39          40
    1   0.0000194   0.0000194   0.0000118   0.0000103
  
*** Unpaired Electrons
 Yamaguchi Nd:         3.55
 Head-Gordon Nu:       2.32
 Head-Gordon Nu_nl:    2.41
  
**************************************************
 RAS-CI total energy for state   8:   -149.408779894296
  Excitation energy (eV) = 10.162732304543
  Warning: not all configurations have same symmetry
  State symmetry: *B2u   (D2h      )
  <S^2>      :  2.0000
  Dipole Moment:    0.0000 X    -0.0000 Y    -0.0000 Z
  Trans. Moment:    0.0527 X     0.0600 Y    -0.0000 Z
  Strength   :  0.001588
  Natural transition orbitals ( 1 -> 8 ):
   e-/hole pair  1 alpha:  ampl =  0.943491 ( 89.0%)   [6 : 7]
   e-/hole pair  2 alpha:  ampl =  0.031528 (  0.1%)   [5 : 8]
   e-/hole pair  1 beta :  ampl =  0.088799 (  0.8%)   [6 : 7]
   e-/hole pair  2 beta :  ampl =  0.020235 (  0.0%)   [5 : 8]
   Sum of square amplitudes: 0.90

 NATURAL OCCUPATION NUMBERS (higher than 1.0E-05)
            1           2           3           4           5           6
    1   1.9999999   1.9999996   1.9989006   1.9915216   1.9776708   1.9558424
            7           8           9          10          11          12
    1   1.8714204   1.0350348   0.9905521   0.1524858   0.0117252   0.0050260
           13          14          15          16          17          18
    1   0.0028311   0.0013693   0.0010208   0.0007646   0.0005999   0.0005819
           19          20          21          22          23          24
    1   0.0003934   0.0003389   0.0003366   0.0002864   0.0002733   0.0002206
           25          26          27          28          29          30
    1   0.0001595   0.0000954   0.0000810   0.0000508   0.0000497   0.0000490
           31          32          33          34          35          36
    1   0.0000425   0.0000401   0.0000363   0.0000323   0.0000296   0.0000170
           37          38          39          40          41          42
    1   0.0000154   0.0000143   0.0000137   0.0000134   0.0000134   0.0000125

  Amplitudes : 
  
 | HOLE  | ALPHA  | BETA   | PART  |    AMPLITUDE 
--------------------------------------------------
 |       | 111101 | 111000 |       |     6.5046379667743E-01
 |       | 111011 | 111000 |       |    -5.7091340144421E-01
 |       | 110111 | 110010 |       |     1.3621406293883E-01
 |       | 101111 | 101100 |       |     1.1955500934540E-01
 |       | 111100 | 111000 |  17   |     2.6702930361765E-01
 |       | 111010 | 111000 |  17   |    -2.3437218122511E-01
--------------------------------------------------
*** Contributions RASCI wfn    Active:  80.78
                                 Hole:   0.96
                                 Part:  18.26

      Mulliken population analysis 
 ---------------------------------------------------
   Atom    Charge (a.u.)   Spin (a.u.)  
 ---------------------------------------------------
   1  O   -0.000000        1.000000 
   2  O   -0.000000        1.000000 
 ---------------------------------------------------
   Sum:   -0.000000        2.000000 
 ---------------------------------------------------
 
  
 NATURAL OCCUPATION NUMBERS (higher than 1.0E-05)
            1           2           3           4           5           6
    1   1.9999999   1.9999996   1.9989006   1.9915216   1.9776708   1.9558424
            7           8           9          10          11          12
    1   1.8714204   1.0350348   0.9905521   0.1524858   0.0117252   0.0050260
           13          14          15          16          17          18
    1   0.0028311   0.0013693   0.0010208   0.0007646   0.0005999   0.0005819
           19          20          21          22          23          24
    1   0.0003934   0.0003389   0.0003366   0.0002864   0.0002733   0.0002206
           25          26          27          28          29          30
    1   0.0001595   0.0000954   0.0000810   0.0000508   0.0000497   0.0000490
           31          32          33          34          35          36
    1   0.0000425   0.0000401   0.0000363   0.0000323   0.0000296   0.0000170
           37          38          39          40          41          42
    1   0.0000154   0.0000143   0.0000137   0.0000134   0.0000134   0.0000125
  
*** Unpaired Electrons
 Yamaguchi Nd:         2.72
 Head-Gordon Nu:       2.34
 Head-Gordon Nu_nl:    2.15
  
**************************************************
 RAS-CI total energy for state   9:   -149.408779823637
  Excitation energy (eV) = 10.162734227264
  Warning: not all configurations have same symmetry
  State symmetry: *B2u   (D2h      )
  <S^2>      :  2.0000
  Dipole Moment:    0.0000 X    -0.0000 Y     0.0000 Z
  Trans. Moment:   -0.0600 X     0.0527 Y     0.0000 Z
  Strength   :  0.001587
  Natural transition orbitals ( 1 -> 9 ):
   e-/hole pair  1 alpha:  ampl =  0.943490 ( 89.0%)   [6 : 7]
   e-/hole pair  2 alpha:  ampl =  0.031526 (  0.1%)   [5 : 8]
   e-/hole pair  1 beta :  ampl =  0.088799 (  0.8%)   [6 : 7]
   e-/hole pair  2 beta :  ampl =  0.020238 (  0.0%)   [5 : 8]
   Sum of square amplitudes: 0.90

 NATURAL OCCUPATION NUMBERS (higher than 1.0E-05)
            1           2           3           4           5           6
    1   1.9999999   1.9999996   1.9989004   1.9915217   1.9776753   1.9558399
            7           8           9          10          11          12
    1   1.8714145   1.0350370   0.9905504   0.1524894   0.0117250   0.0050265
           13          14          15          16          17          18
    1   0.0028310   0.0013694   0.0010207   0.0007645   0.0006000   0.0005819
           19          20          21          22          23          24
    1   0.0003935   0.0003389   0.0003366   0.0002864   0.0002733   0.0002205
           25          26          27          28          29          30
    1   0.0001596   0.0000954   0.0000811   0.0000508   0.0000497   0.0000490
           31          32          33          34          35          36
    1   0.0000425   0.0000402   0.0000363   0.0000323   0.0000297   0.0000170
           37          38          39          40          41          42
    1   0.0000155   0.0000143   0.0000136   0.0000134   0.0000134   0.0000125

  Amplitudes : 
  
 | HOLE  | ALPHA  | BETA   | PART  |    AMPLITUDE 
--------------------------------------------------
 |       | 111101 | 111000 |       |     5.7091346168551E-01
 |       | 111011 | 111000 |       |     6.5046386226094E-01
 |       | 110111 | 110010 |       |     1.1955998629232E-01
 |       | 101111 | 101100 |       |    -1.3621814633456E-01
 |       | 111100 | 111000 |  17   |     2.3437187169091E-01
 |       | 111010 | 111000 |  17   |     2.6702903983341E-01
--------------------------------------------------
*** Contributions RASCI wfn    Active:  80.78
                                 Hole:   0.96
                                 Part:  18.26

      Mulliken population analysis 
 ---------------------------------------------------
   Atom    Charge (a.u.)   Spin (a.u.)  
 ---------------------------------------------------
   1  O   -0.000000        1.000000 
   2  O   -0.000000        1.000000 
 ---------------------------------------------------
   Sum:   -0.000000        2.000000 
 ---------------------------------------------------
 
  
 NATURAL OCCUPATION NUMBERS (higher than 1.0E-05)
            1           2           3           4           5           6
    1   1.9999999   1.9999996   1.9989004   1.9915217   1.9776753   1.9558399
            7           8           9          10          11          12
    1   1.8714145   1.0350370   0.9905504   0.1524894   0.0117250   0.0050265
           13          14          15          16          17          18
    1   0.0028310   0.0013694   0.0010207   0.0007645   0.0006000   0.0005819
           19          20          21          22          23          24
    1   0.0003935   0.0003389   0.0003366   0.0002864   0.0002733   0.0002205
           25          26          27          28          29          30
    1   0.0001596   0.0000954   0.0000811   0.0000508   0.0000497   0.0000490
           31          32          33          34          35          36
    1   0.0000425   0.0000402   0.0000363   0.0000323   0.0000297   0.0000170
           37          38          39          40          41          42
    1   0.0000155   0.0000143   0.0000136   0.0000134   0.0000134   0.0000125
  
*** Unpaired Electrons
 Yamaguchi Nd:         2.72
 Head-Gordon Nu:       2.34
 Head-Gordon Nu_nl:    2.15
  
**************************************************
 RAS-CI total energy for state  10:   -149.214736447571
  Excitation energy (eV) = 15.442923137635
  Warning: not all configurations have same symmetry
  State symmetry: *B3u   (D2h      )
  <S^2>      :  2.0000
  Dipole Moment:    0.0000 X     0.0000 Y    -0.0000 Z
  Trans. Moment:   -0.2326 X     0.1908 Y     0.0000 Z
  Strength   :  0.034235
  Natural transition orbitals ( 1 -> 10 ):
   e-/hole pair  1 alpha:  ampl =  0.061975 (  0.4%)   [6 : 7]
   e-/hole pair  2 alpha:  ampl =  0.031464 (  0.1%)   [5 : 8]
   e-/hole pair  1 beta :  ampl =  0.568894 ( 32.4%)   [6 : 7]
   e-/hole pair  2 beta :  ampl =  0.084035 (  0.7%)   [5 : 8]
   Sum of square amplitudes: 0.34

 NATURAL OCCUPATION NUMBERS (higher than 1.0E-05)
            1           2           3           4           5           6
    1   1.9999999   1.9999999   1.9984910   1.9881854   1.9805800   1.6588740
            7           8           9          10          11          12
    1   1.6258366   1.3576031   1.3545745   0.0131548   0.0031605   0.0024427
           13          14          15          16          17          18
    1   0.0023937   0.0022612   0.0020242   0.0020124   0.0015837   0.0014919
           19          20          21          22          23          24
    1   0.0012522   0.0010850   0.0008282   0.0004681   0.0004590   0.0002739
           25          26          27          28          29          30
    1   0.0002643   0.0002442   0.0000695   0.0000553   0.0000375   0.0000367
           31          32          33          34          35          36
    1   0.0000267   0.0000261   0.0000258   0.0000247   0.0000219   0.0000218
           37          38          39          40
    1   0.0000173   0.0000149   0.0000118   0.0000109

  Amplitudes : 
  
 | HOLE  | ALPHA  | BETA   | PART  |    AMPLITUDE 
--------------------------------------------------
 |       | 111110 | 010110 |       |     6.1012744588193E-01
 |       | 111110 | 001110 |       |     5.0051797499176E-01
 |   4   | 111110 | 111100 |       |     4.5116222152138E-01
 |   4   | 111110 | 111010 |       |    -3.7010968801126E-01
--------------------------------------------------
*** Contributions RASCI wfn    Active:  62.91
                                 Hole:  34.45
                                 Part:   2.64

      Mulliken population analysis 
 ---------------------------------------------------
   Atom    Charge (a.u.)   Spin (a.u.)  
 ---------------------------------------------------
   1  O   -0.000000        1.000000 
   2  O   -0.000000        1.000000 
 ---------------------------------------------------
   Sum:   -0.000000        2.000000 
 ---------------------------------------------------
 
  
 NATURAL OCCUPATION NUMBERS (higher than 1.0E-05)
            1           2           3           4           5           6
    1   1.9999999   1.9999999   1.9984910   1.9881854   1.9805800   1.6588740
            7           8           9          10          11          12
    1   1.6258366   1.3576031   1.3545745   0.0131548   0.0031605   0.0024427
           13          14          15          16          17          18
    1   0.0023937   0.0022612   0.0020242   0.0020124   0.0015837   0.0014919
           19          20          21          22          23          24
    1   0.0012522   0.0010850   0.0008282   0.0004681   0.0004590   0.0002739
           25          26          27          28          29          30
    1   0.0002643   0.0002442   0.0000695   0.0000553   0.0000375   0.0000367
           31          32          33          34          35          36
    1   0.0000267   0.0000261   0.0000258   0.0000247   0.0000219   0.0000218
           37          38          39          40
    1   0.0000173   0.0000149   0.0000118   0.0000109
  
*** Unpaired Electrons
 Yamaguchi Nd:         3.06
 Head-Gordon Nu:       2.07
 Head-Gordon Nu_nl:    2.22
  
**************************************************
 RAS-CI total energy for state  11:   -149.214736391682
  Excitation energy (eV) = 15.442924658449
  Warning: not all configurations have same symmetry
  State symmetry: *B3u   (D2h      )
  <S^2>      :  2.0000
  Dipole Moment:    0.0000 X     0.0000 Y     0.0000 Z
  Trans. Moment:    0.1908 X     0.2325 Y    -0.0000 Z
  Strength   :  0.034230
  Natural transition orbitals ( 1 -> 11 ):
   e-/hole pair  1 alpha:  ampl =  0.061976 (  0.4%)   [6 : 7]
   e-/hole pair  2 alpha:  ampl =  0.031467 (  0.1%)   [5 : 8]
   e-/hole pair  1 beta :  ampl =  0.568893 ( 32.4%)   [6 : 7]
   e-/hole pair  2 beta :  ampl =  0.084034 (  0.7%)   [5 : 8]
   Sum of square amplitudes: 0.34

 NATURAL OCCUPATION NUMBERS (higher than 1.0E-05)
            1           2           3           4           5           6
    1   1.9999999   1.9999999   1.9984909   1.9881861   1.9805800   1.6588747
            7           8           9          10          11          12
    1   1.6258377   1.3576032   1.3545726   0.0131545   0.0031612   0.0024428
           13          14          15          16          17          18
    1   0.0023939   0.0022600   0.0020237   0.0020124   0.0015837   0.0014919
           19          20          21          22          23          24
    1   0.0012523   0.0010849   0.0008283   0.0004685   0.0004590   0.0002739
           25          26          27          28          29          30
    1   0.0002643   0.0002442   0.0000696   0.0000553   0.0000375   0.0000367
           31          32          33          34          35          36
    1   0.0000267   0.0000261   0.0000258   0.0000247   0.0000219   0.0000218
           37          38          39          40
    1   0.0000173   0.0000149   0.0000118   0.0000109

  Amplitudes : 
  
 | HOLE  | ALPHA  | BETA   | PART  |    AMPLITUDE 
--------------------------------------------------
 |       | 111110 | 010110 |       |    -5.0051825023055E-01
 |       | 111110 | 001110 |       |     6.1012765209482E-01
 |   4   | 111110 | 111100 |       |    -3.7010928002810E-01
 |   4   | 111110 | 111010 |       |    -4.5116191997586E-01
--------------------------------------------------
*** Contributions RASCI wfn    Active:  62.91
                                 Hole:  34.45
                                 Part:   2.64

      Mulliken population analysis 
 ---------------------------------------------------
   Atom    Charge (a.u.)   Spin (a.u.)  
 ---------------------------------------------------
   1  O   -0.000000        1.000000 
   2  O   -0.000000        1.000000 
 ---------------------------------------------------
   Sum:   -0.000000        2.000000 
 ---------------------------------------------------
 
  
 NATURAL OCCUPATION NUMBERS (higher than 1.0E-05)
            1           2           3           4           5           6
    1   1.9999999   1.9999999   1.9984909   1.9881861   1.9805800   1.6588747
            7           8           9          10          11          12
    1   1.6258377   1.3576032   1.3545726   0.0131545   0.0031612   0.0024428
           13          14          15          16          17          18
    1   0.0023939   0.0022600   0.0020237   0.0020124   0.0015837   0.0014919
           19          20          21          22          23          24
    1   0.0012523   0.0010849   0.0008283   0.0004685   0.0004590   0.0002739
           25          26          27          28          29          30
    1   0.0002643   0.0002442   0.0000696   0.0000553   0.0000375   0.0000367
           31          32          33          34          35          36
    1   0.0000267   0.0000261   0.0000258   0.0000247   0.0000219   0.0000218
           37          38          39          40
    1   0.0000173   0.0000149   0.0000118   0.0000109
  
*** Unpaired Electrons
 Yamaguchi Nd:         3.06
 Head-Gordon Nu:       2.07
 Head-Gordon Nu_nl:    2.22
  
**************************************************
 RAS-CI total energy for state  12:   -149.198675727321
  Excitation energy (eV) = 15.879957571271
  Warning: not all configurations have same symmetry
  State symmetry: *B3g   (D2h      )
  <S^2>      :  2.0000
  Dipole Moment:    0.0000 X    -0.0000 Y    -0.0000 Z
  Trans. Moment:   -0.0000 X    -0.0000 Y    -0.0000 Z
  Strength   :  0.000000
  Natural transition orbitals ( 1 -> 12 ):
   e-/hole pair  1 alpha:  ampl =  0.492285 ( 24.2%)   [6 : 7]
   e-/hole pair  2 alpha:  ampl =  0.118407 (  1.4%)   [5 : 8]
   e-/hole pair  1 beta :  ampl =  0.055749 (  0.3%)   [6 : 7]
   e-/hole pair  2 beta :  ampl =  0.013107 (  0.0%)   [5 : 8]
   Sum of square amplitudes: 0.26

 NATURAL OCCUPATION NUMBERS (higher than 1.0E-05)
            1           2           3           4           5           6
    1   2.0000000   1.9999997   1.9994349   1.9991402   1.9851199   1.6413187
            7           8           9          10          11          12
    1   1.3358768   1.2967046   0.9833048   0.7183339   0.0156935   0.0101951
           13          14          15          16          17          18
    1   0.0050033   0.0028149   0.0014585   0.0011518   0.0007263   0.0004351
           19          20          21          22          23          24
    1   0.0004256   0.0004008   0.0004005   0.0003951   0.0003011   0.0002813
           25          26          27          28          29          30
    1   0.0002227   0.0001156   0.0000930   0.0000899   0.0000709   0.0000680
           31          32          33          34          35          36
    1   0.0000523   0.0000501   0.0000497   0.0000333   0.0000267   0.0000245
           37          38          39          40          41          42
    1   0.0000213   0.0000207   0.0000204   0.0000198   0.0000196   0.0000177
           43          44
    1   0.0000139   0.0000127

  Amplitudes : 
  
 | HOLE  | ALPHA  | BETA   | PART  |    AMPLITUDE 
--------------------------------------------------
 |       | 111101 | 101100 |       |    -3.8714139785668E-01
 |       | 111101 | 101010 |       |     3.4130829916905E-01
 |       | 111011 | 110100 |       |    -4.0567095148268E-01
 |       | 111011 | 110010 |       |     3.2571826314983E-01
 |       | 111011 | 101010 |       |     1.1309461823218E-01
 |       | 110111 | 111000 |       |    -3.5137935656108E-01
 |       | 101111 | 111000 |       |    -2.9563165335171E-01
 |       | 110110 | 111000 |  17   |    -1.5698265634821E-01
 |       | 101110 | 111000 |  17   |    -1.3207669269906E-01
 |       | 111010 | 110100 |  17   |    -1.7643254423279E-01
 |       | 111010 | 110010 |  17   |     1.3236498012889E-01
 |       | 111100 | 101100 |  17   |    -1.5732608983042E-01
 |       | 111100 | 101010 |  17   |     1.4843978822160E-01
--------------------------------------------------
*** Contributions RASCI wfn    Active:  79.63
                                 Hole:   0.16
                                 Part:  20.22

      Mulliken population analysis 
 ---------------------------------------------------
   Atom    Charge (a.u.)   Spin (a.u.)  
 ---------------------------------------------------
   1  O   -0.000000        1.000000 
   2  O   -0.000000        1.000000 
 ---------------------------------------------------
   Sum:   -0.000000        2.000000 
 ---------------------------------------------------
 
  
 NATURAL OCCUPATION NUMBERS (higher than 1.0E-05)
            1           2           3           4           5           6
    1   2.0000000   1.9999997   1.9994349   1.9991402   1.9851199   1.6413187
            7           8           9          10          11          12
    1   1.3358768   1.2967046   0.9833048   0.7183339   0.0156935   0.0101951
           13          14          15          16          17          18
    1   0.0050033   0.0028149   0.0014585   0.0011518   0.0007263   0.0004351
           19          20          21          22          23          24
    1   0.0004256   0.0004008   0.0004005   0.0003951   0.0003011   0.0002813
           25          26          27          28          29          30
    1   0.0002227   0.0001156   0.0000930   0.0000899   0.0000709   0.0000680
           31          32          33          34          35          36
    1   0.0000523   0.0000501   0.0000497   0.0000333   0.0000267   0.0000245
           37          38          39          40          41          42
    1   0.0000213   0.0000207   0.0000204   0.0000198   0.0000196   0.0000177
           43          44
    1   0.0000139   0.0000127
  
*** Unpaired Electrons
 Yamaguchi Nd:         4.42
 Head-Gordon Nu:       3.48
 Head-Gordon Nu_nl:    3.81
  
**************************************************
 RAS-CI total energy for state  13:   -149.198675666547
  Excitation energy (eV) = 15.879959225008
  Warning: not all configurations have same symmetry
  State symmetry: *B3g   (D2h      )
  <S^2>      :  2.0000
  Dipole Moment:    0.0000 X     0.0000 Y    -0.0000 Z
  Trans. Moment:   -0.0000 X     0.0000 Y    -0.0000 Z
  Strength   :  0.000000
  Natural transition orbitals ( 1 -> 13 ):
   e-/hole pair  1 alpha:  ampl =  0.492286 ( 24.2%)   [6 : 7]
   e-/hole pair  2 alpha:  ampl =  0.118408 (  1.4%)   [5 : 8]
   e-/hole pair  1 beta :  ampl =  0.055750 (  0.3%)   [6 : 7]
   e-/hole pair  2 beta :  ampl =  0.013108 (  0.0%)   [5 : 8]
   Sum of square amplitudes: 0.26

 NATURAL OCCUPATION NUMBERS (higher than 1.0E-05)
            1           2           3           4           5           6
    1   2.0000000   1.9999997   1.9994349   1.9991402   1.9851198   1.6413209
            7           8           9          10          11          12
    1   1.3358742   1.2967026   0.9833047   0.7183363   0.0156936   0.0101951
           13          14          15          16          17          18
    1   0.0050033   0.0028150   0.0014585   0.0011518   0.0007263   0.0004350
           19          20          21          22          23          24
    1   0.0004256   0.0004009   0.0004005   0.0003951   0.0003011   0.0002813
           25          26          27          28          29          30
    1   0.0002227   0.0001156   0.0000930   0.0000899   0.0000709   0.0000680
           31          32          33          34          35          36
    1   0.0000523   0.0000501   0.0000497   0.0000333   0.0000267   0.0000245
           37          38          39          40          41          42
    1   0.0000213   0.0000207   0.0000204   0.0000198   0.0000196   0.0000177
           43          44
    1   0.0000139   0.0000127

  Amplitudes : 
  
 | HOLE  | ALPHA  | BETA   | PART  |    AMPLITUDE 
--------------------------------------------------
 |       | 111101 | 110100 |       |     1.1309572491218E-01
 |       | 111101 | 101100 |       |    -3.2571830817306E-01
 |       | 111101 | 101010 |       |    -4.0567089635210E-01
 |       | 111011 | 110100 |       |    -3.4130788058616E-01
 |       | 111011 | 110010 |       |    -3.8714122490816E-01
 |       | 110111 | 111000 |       |    -2.9563217987409E-01
 |       | 101111 | 111000 |       |     3.5138026123116E-01
 |       | 110110 | 111000 |  17   |    -1.3207706733798E-01
 |       | 101110 | 111000 |  17   |     1.5698310617954E-01
 |       | 111010 | 110100 |  17   |    -1.4843894202886E-01
 |       | 111010 | 110010 |  17   |    -1.5732506536052E-01
 |       | 111100 | 101100 |  17   |    -1.3236428387088E-01
 |       | 111100 | 101010 |  17   |    -1.7643052969008E-01
--------------------------------------------------
*** Contributions RASCI wfn    Active:  79.63
                                 Hole:   0.16
                                 Part:  20.22

      Mulliken population analysis 
 ---------------------------------------------------
   Atom    Charge (a.u.)   Spin (a.u.)  
 ---------------------------------------------------
   1  O   -0.000000        1.000000 
   2  O   -0.000000        1.000000 
 ---------------------------------------------------
   Sum:   -0.000000        2.000000 
 ---------------------------------------------------
 
  
 NATURAL OCCUPATION NUMBERS (higher than 1.0E-05)
            1           2           3           4           5           6
    1   2.0000000   1.9999997   1.9994349   1.9991402   1.9851198   1.6413209
            7           8           9          10          11          12
    1   1.3358742   1.2967026   0.9833047   0.7183363   0.0156936   0.0101951
           13          14          15          16          17          18
    1   0.0050033   0.0028150   0.0014585   0.0011518   0.0007263   0.0004350
           19          20          21          22          23          24
    1   0.0004256   0.0004009   0.0004005   0.0003951   0.0003011   0.0002813
           25          26          27          28          29          30
    1   0.0002227   0.0001156   0.0000930   0.0000899   0.0000709   0.0000680
           31          32          33          34          35          36
    1   0.0000523   0.0000501   0.0000497   0.0000333   0.0000267   0.0000245
           37          38          39          40          41          42
    1   0.0000213   0.0000207   0.0000204   0.0000198   0.0000196   0.0000177
           43          44
    1   0.0000139   0.0000127
  
*** Unpaired Electrons
 Yamaguchi Nd:         4.42
 Head-Gordon Nu:       3.48
 Head-Gordon Nu_nl:    3.81
  
**************************************************
 RAS-CI total energy for state  14:   -149.197769290007
  Excitation energy (eV) = 15.904622985522
  State symmetry: B1g   (D2h      )
  <S^2>      :  2.0000
  Dipole Moment:    0.0000 X     0.0000 Y     0.0000 Z
  Trans. Moment:   -0.0000 X    -0.0000 Y     0.0000 Z
  Strength   :  0.000000
  Natural transition orbitals ( 1 -> 14 ):
   e-/hole pair  1 alpha:  ampl =  0.033295 (  0.1%)   [6 : 7]
   e-/hole pair  2 alpha:  ampl =  0.032111 (  0.1%)   [5 : 8]
   e-/hole pair  1 beta :  ampl =  0.104585 (  1.1%)   [6 : 7]
   e-/hole pair  2 beta :  ampl =  0.104585 (  1.1%)   [5 : 8]
   Sum of square amplitudes: 0.04

 NATURAL OCCUPATION NUMBERS (higher than 1.0E-05)
            1           2           3           4           5           6
    1   1.9999999   1.9999996   1.9985586   1.9978689   1.9309786   1.9069998
            7           8           9          10          11          12
    1   1.9069997   1.0616246   1.0616246   0.0686323   0.0235918   0.0235918
           13          14          15          16          17          18
    1   0.0055539   0.0044312   0.0044311   0.0018040   0.0005320   0.0005320
           19          20          21          22          23          24
    1   0.0002995   0.0002995   0.0002442   0.0002067   0.0002067   0.0001084
           25          26          27          28          29          30
    1   0.0000848   0.0000848   0.0000701   0.0000676   0.0000676   0.0000607
           31          32          33          34          35          36
    1   0.0000483   0.0000483   0.0000362   0.0000362   0.0000333   0.0000333
           37          38          39          40          41          42
    1   0.0000314   0.0000314   0.0000292   0.0000292   0.0000266   0.0000139
           43
    1   0.0000139

  Amplitudes : 
  
 | HOLE  | ALPHA  | BETA   | PART  |    AMPLITUDE 
--------------------------------------------------
 |       | 111110 | 100110 |       |     9.2936636573652E-01
 |       | 011110 | 110010 |  17   |     1.0099691552265E-01
 |       | 011110 | 101100 |  17   |     1.0099692180370E-01
--------------------------------------------------
*** Contributions RASCI wfn    Active:  89.08
                                 Hole:   0.51
                                 Part:  10.41

      Mulliken population analysis 
 ---------------------------------------------------
   Atom    Charge (a.u.)   Spin (a.u.)  
 ---------------------------------------------------
   1  O   -0.000000        1.000000 
   2  O   -0.000000        1.000000 
 ---------------------------------------------------
   Sum:   -0.000000        2.000000 
 ---------------------------------------------------
 
  
 NATURAL OCCUPATION NUMBERS (higher than 1.0E-05)
            1           2           3           4           5           6
    1   1.9999999   1.9999996   1.9985586   1.9978689   1.9309786   1.9069998
            7           8           9          10          11          12
    1   1.9069997   1.0616246   1.0616246   0.0686323   0.0235918   0.0235918
           13          14          15          16          17          18
    1   0.0055539   0.0044312   0.0044311   0.0018040   0.0005320   0.0005320
           19          20          21          22          23          24
    1   0.0002995   0.0002995   0.0002442   0.0002067   0.0002067   0.0001084
           25          26          27          28          29          30
    1   0.0000848   0.0000848   0.0000701   0.0000676   0.0000676   0.0000607
           31          32          33          34          35          36
    1   0.0000483   0.0000483   0.0000362   0.0000362   0.0000333   0.0000333
           37          38          39          40          41          42
    1   0.0000314   0.0000314   0.0000292   0.0000292   0.0000266   0.0000139
           43
    1   0.0000139
  
*** Unpaired Electrons
 Yamaguchi Nd:         2.75
 Head-Gordon Nu:       2.27
 Head-Gordon Nu_nl:    2.09
  
**************************************************
 RAS-CI total energy for state  15:   -149.172240056625
  Excitation energy (eV) = 16.599308770345
  Warning: not all configurations have same symmetry
  State symmetry: *B3g   (D2h      )
  <S^2>      :  2.0000
  Dipole Moment:   -0.0000 X    -0.0000 Y    -0.0000 Z
  Trans. Moment:    0.0000 X    -0.0000 Y     0.0000 Z
  Strength   :  0.000000
  Natural transition orbitals ( 1 -> 15 ):
   e-/hole pair  1 alpha:  ampl =  0.291032 (  8.5%)   [6 : 7]
   e-/hole pair  2 alpha:  ampl =  0.207779 (  4.3%)   [5 : 8]
   e-/hole pair  1 beta :  ampl =  0.796680 ( 63.5%)   [6 : 7]
   e-/hole pair  2 beta :  ampl =  0.036741 (  0.1%)   [5 : 8]
   Sum of square amplitudes: 0.77

 NATURAL OCCUPATION NUMBERS (higher than 1.0E-05)
            1           2           3           4           5           6
    1   2.0000000   1.9999999   1.9986426   1.9981493   1.9807367   1.9687786
            7           8           9          10          11          12
    1   1.0874062   1.0242327   0.9127200   0.9024992   0.0974807   0.0115486
           13          14          15          16          17          18
    1   0.0047873   0.0028539   0.0019271   0.0012353   0.0011286   0.0009653
           19          20          21          22          23          24
    1   0.0007719   0.0007463   0.0006756   0.0006127   0.0006098   0.0005291
           25          26          27          28          29          30
    1   0.0001695   0.0001078   0.0001052   0.0000983   0.0000534   0.0000443
           31          32          33          34          35          36
    1   0.0000419   0.0000359   0.0000340   0.0000329   0.0000323   0.0000313
           37          38          39          40          41          42
    1   0.0000292   0.0000265   0.0000226   0.0000169   0.0000140   0.0000140
           43
    1   0.0000103

  Amplitudes : 
  
 | HOLE  | ALPHA  | BETA   | PART  |    AMPLITUDE 
--------------------------------------------------
 |       | 111110 | 110001 |       |    -6.5860067555871E-01
 |       | 111110 | 101001 |       |     3.9516263649676E-01
 |       | 111101 | 110010 |       |    -2.2178191634358E-01
 |       | 111101 | 101010 |       |     1.5855764779530E-01
 |       | 111011 | 110100 |       |     2.6426051211768E-01
 |       | 111011 | 101100 |       |    -1.3307005415387E-01
 |       | 110111 | 111000 |       |    -1.7255824709733E-01
 |       | 101111 | 111000 |       |     1.0353493454750E-01
 |       | 111100 | 111000 |  11   |     2.5183981883321E-01
[...]
    22    1.029379324816e-14
    23    1.536301603511e-14
    24   -6.509987640237e-01
    25   -4.325811866880e-16
    26   -2.066192235861e-16
    27   -5.390217645295e-16
    28   -3.152656629681e-17
    29   -1.617627960698e-02
    30    2.440339797907e-16
    31    2.964680655417e-16
    32   -3.020327174140e-17
    33   -3.175547015582e-16
    34    2.596282444579e-15
    35   -3.235808296314e-15
    36    3.290964591642e-14
    37   -3.307550425217e-17
    38   -1.951881053046e-15
    39    4.428656741439e-15
    40   -1.051708351628e-15
    41   -2.143144659900e-15
    42   -5.468406164886e-15
    43    1.520382684728e-16
    44    7.196956635069e-16
    45   -1.649065692513e-14
    46   -1.437262255609e-16
    47   -2.188389459342e-16
    48   -9.821460527896e-17
    49   -2.306395011804e-16
    50    8.268743372652e-03
    51    4.126364662952e-15
    52   -1.343182492096e-15
    53   -1.359368583897e-14
    54    1.548517173863e-14
    55   -6.509987640237e-01
    56   -6.723363308324e-16
    57   -1.225212081430e-16
    58   -3.874934678006e-16
    59   -4.660269396675e-16
    60    1.617627960698e-02
    61   -2.347795538839e-16
    62    7.520331148134e-17
Sym=X
Ene= 1.442747
Spin=Alpha
Occup=0
     1    7.448638608718e-10
     2    2.314123914000e-09
     3   -5.314851565011e-09
     4   -4.395572438458e-08
     5    5.127909541489e-08
     6   -4.425465089785e-16
     7    6.201721939700e-16
     8   -3.198640773006e-08
     9    5.031602753541e-16
    10    3.687862925363e-15
    11   -3.911787704206e-08
    12   -2.555463406332e-16
    13   -5.208958372447e-16
    14    4.201756011855e-08
    15   -2.610004130456e-09
    16   -1.410204424699e-16
    17   -5.417305322808e-16
    18    8.268743372714e-03
    19    1.526827180007e-16
    20    5.197503258029e-09
    21    2.505100287967e-17
    22   -9.689492653675e-15
    23   -6.509987640240e-01
    24   -1.511476761893e-14
    25   -2.235007228759e-09
    26   -1.013512294597e-16
    27   -1.830276312534e-16
    28   -1.617627960538e-02
    29   -3.595332988575e-16
    30   -1.499680496923e-16
    31   -1.150578911570e-16
    32    7.448625849296e-10
    33    2.314121440094e-09
    34   -5.314868008890e-09
    35   -4.395561441438e-08
    36    5.127886800948e-08
    37   -4.213042061890e-16
    38    2.321106281279e-15
    39    3.198640095225e-08
    40    2.309694000755e-16
    41    4.448645923030e-15
    42    3.911783001513e-08
    43    2.809194923880e-16
    44   -4.501866632558e-15
    45   -4.201745587328e-08
    46   -2.610005274258e-09
    47    9.929077866990e-17
    48    1.057254914037e-16
    49    8.268743372715e-03
    50    1.198233453614e-16
    51    5.197532052331e-09
    52    1.866470092602e-16
    53    8.711184579224e-15
    54   -6.509987640240e-01
    55   -1.483523319381e-14
    56    2.235003669885e-09
    57   -2.676384913367e-17
    58    1.502639904014e-16
    59    1.617627960538e-02
    60    2.418319298476e-16
    61    1.634471317262e-16
    62    1.447787970438e-16
Sym=X
Ene= 1.532471
Spin=Alpha
Occup=0
     1    2.367548846611e-17
     2    5.060151671439e-18
     3   -2.262887477124e-16
     4    1.827496500441e-15
     5   -1.299465125948e-14
     6    1.123518563656e-01
     7    5.525227677641e-16
     8    6.182527515383e-16
     9    1.379501024296e-01
    10    5.709917986077e-16
    11   -1.488968616962e-15
    12   -3.824597244553e-02
    13   -7.456595356435e-16
    14   -6.615247566696e-15
    15   -2.159330313062e-17
    16   -1.162750762893e-02
    17   -4.894548280947e-17
    18   -5.447511613203e-17
    19   -2.494129680154e-16
    20   -1.494663342755e-15
    21   -5.989725442594e-01
    22   -3.299904254896e-15
    23    2.100213416094e-16
    24   -2.561271789791e-15
    25   -2.832966190204e-16
    26    1.053738397307e-02
    27    3.499397224522e-17
    28    6.974269893276e-17
    29   -1.796091554501e-16
    30   -1.689041638905e-09
    31   -5.076261585756e-17
    32    7.111837989376e-17
    33    2.597039825218e-16
    34   -1.527766553487e-15
    35    8.077318438822e-16
    36    1.216949086722e-14
    37    1.123518563656e-01
    38    2.361876171327e-16
    39    1.417533846583e-15
    40    1.379501024296e-01
    41    3.511058254057e-16
    42   -2.636032240113e-15
    43   -3.824597244553e-02
    44    1.374955110044e-15
    45   -5.431372192041e-15
    46   -1.461588942764e-16
    47    1.162750762893e-02
    48    4.148052860399e-16
    49   -2.136337185890e-17
    50   -1.740200604333e-17
    51    9.699668713914e-16
    52    5.989725442594e-01
    53    2.738658969212e-15
    54   -1.095883708953e-16
    55   -1.631183836672e-15
    56   -1.825300779783e-16
    57    1.053738397307e-02
    58    3.250604896763e-17
    59   -1.670838301330e-16
    60    1.612169443120e-16
    61   -1.689041679306e-09
    62    3.796781791515e-17
Sym=X
Ene= 1.532471
Spin=Alpha
Occup=0
     1    5.623524448242e-16
     2    2.329393397755e-15
     3   -1.986327747696e-14
     4    3.557764624129e-14
     5   -1.386678665573e-14
     6   -1.237233113258e-15
     7    1.123518860012e-01
     8    5.954249308688e-15
     9   -7.169908585883e-16
    10    1.379502487246e-01
    11    1.751077547538e-14
    12    1.731266108783e-15
    13   -3.824608939535e-02
    14   -1.029663903635e-14
    15   -3.964929572012e-16
    16   -7.339239277893e-17
    17   -1.162751599392e-02
    18   -1.364078011350e-16
    19   -3.708115165826e-17
    20    5.604785403102e-15
    21    3.923847200990e-15
    22   -5.989725333070e-01
    23    1.156642966797e-14
    24   -1.287003268841e-14
    25    1.492527303314e-15
    26   -4.354011974983e-16
    27    1.053737307525e-02
    28   -3.163438645267e-17
    29   -1.069171098049e-15
    30    3.869115930904e-16
    31   -1.693511289191e-09
    32   -5.798820375905e-16
    33   -2.346919313346e-15
    34    2.070989065104e-14
    35   -3.705389114508e-14
    36    1.543775675139e-14
    37   -3.057157089405e-16
    38    1.123518860012e-01
    39    5.628948359745e-15
    40   -2.234367015679e-15
    41    1.379502487246e-01
    42    1.614045775841e-14
    43    1.042635980470e-15
    44   -3.824608939535e-02
    45   -7.324196293784e-15
    46    3.906748936771e-16
    47   -2.309026032933e-16
    48    1.162751599392e-02
    49   -1.516228456518e-16
    50    3.943872266447e-17
    51   -5.750767746291e-15
    52   -1.696949363406e-15
    53    5.989725333070e-01
    54    8.580625052977e-15
    55   -1.125305429200e-14
    56    1.594453216857e-15
    57   -2.821388605296e-16
    58    1.053737307525e-02
    59   -1.007662748695e-15
    60    7.735084225791e-16
    61   -2.637916645923e-16
    62   -1.693511477208e-09
Sym=X
Ene= 1.858697
Spin=Alpha
Occup=0
     1   -9.892052503906e-17
     2   -4.998163369675e-16
     3   -1.424445756901e-15
     4    1.521743861487e-14
     5   -7.065206061687e-15
     6   -1.779438618577e-15
     7    1.406901040488e-16
     8   -3.909599990619e-16
     9    1.865824197426e-15
    10   -1.003672670447e-15
    11    1.294774155856e-14
    12   -1.241950508146e-15
    13    7.841710307640e-16
    14   -7.875103452456e-15
    15   -3.308738751415e-16
    16   -7.303332989221e-17
    17    2.837642975187e-16
    18    2.117476770418e-16
    19    5.361928300049e-03
    20    3.248341349432e-15
    21   -4.265047908788e-16
    22    6.440607120884e-16
    23   -5.836791217264e-14
    24   -7.854344320276e-01
    25    2.483143849952e-16
    26   -8.992707489232e-17
    27   -7.925644854782e-17
    28    9.298865934876e-16
    29    1.012922422648e-02
    30    2.081849346649e-16
    31    2.988340774030e-17
    32    4.054956470584e-16
    33    1.392936675870e-15
    34   -5.458094668002e-15
    35   -5.242220570696e-16
    36    2.254653869350e-15
    37   -1.938157902619e-16
    38   -3.986724916568e-15
    39    2.419802656868e-15
    40    1.728016168915e-16
    41    5.748060627810e-15
    42    4.723514211819e-15
    43    3.749744339310e-16
    44   -3.522051310265e-15
    45    2.102674363107e-15
    46    2.548063611670e-16
    47    6.305849176121e-17
    48   -4.542403330275e-17
    49   -4.265118747535e-16
    50   -5.361928300050e-03
    51   -1.260915399767e-14
    52   -1.323581263375e-15
    53   -3.397912853362e-16
    54    5.870661795325e-14
    55    7.854344320276e-01
    56    7.740854174533e-16
    57   -1.897995463761e-16
    58    2.184779802057e-16
    59    8.625271186793e-16
    60    1.012922422648e-02
    61   -2.361847998059e-16
    62   -3.605087420146e-16
Sym=X
Ene= 1.858697
Spin=Alpha
Occup=0
     1   -1.085088085553e-10
     2   -3.310931001013e-11
     3    6.351486671729e-09
     4   -3.685064174743e-08
     5    1.160710893711e-07
     6    6.564539520007e-18
     7   -7.691875826818e-17
     8   -1.035503351944e-10
     9    3.919567475155e-16
    10    6.123770193941e-16
    11   -5.138013569975e-08
    12    7.147584309644e-16
    13    1.307952369584e-15
    14    6.182367493911e-08
    15    8.245764724204e-10
    16   -1.861550711185e-16
    17   -9.403249945419e-18
    18    5.361928299005e-03
    19   -6.373092850514e-16
    20    1.049790273949e-08
    21    1.529052170929e-15
    22   -9.204001906211e-16
    23   -7.854344320271e-01
    24    5.862364750068e-14
    25    6.783947422978e-10
    26   -6.133916405061e-18
    27    6.330079223805e-17
    28    1.012922422610e-02
    29   -6.890685103359e-16
    30    1.517957606764e-17
    31    6.601542014324e-17
    32    1.085086894389e-10
    33    3.310920797160e-11
    34   -6.351484329771e-09
    35    3.685063371952e-08
    36   -1.160710856012e-07
    37   -9.155829051111e-17
    38    3.831854059845e-17
    39   -1.035520289017e-10
    40   -1.571338035869e-16
    41    5.176432119695e-17
    42   -5.138013153374e-08
    43   -7.972535628129e-16
    44   -1.403950203940e-15
    45    6.182367062735e-08
    46   -8.245769675785e-10
    47   -3.551827218800e-18
    48   -1.394389198358e-17
    49   -5.361928299005e-03
    50    6.048797301461e-16
    51   -1.049789634474e-08
    52    1.753645362987e-15
    53    2.147741580953e-15
    54    7.854344320271e-01
    55   -5.844795502772e-14
    56    6.783949520338e-10
    57    1.584544179271e-17
    58    1.102580605326e-16
    59    1.012922422610e-02
    60   -5.992321038753e-16
    61    1.740044554345e-18
    62    1.249943008793e-17
Sym=X
Ene= 2.096014
Spin=Alpha
Occup=0
     1    5.407743648008e-03
     2    2.601624980732e-02
     3   -2.907512285814e-01
     4    1.056836597788e+00
     5   -4.596433154730e-01
     6   -2.135417249699e-15
     7   -3.286848677358e-15
     8   -1.592032725760e-01
     9    3.357344615617e-15
    10    4.480620110421e-15
    11    5.605037430989e-01
    12   -2.279306694777e-15
    13   -3.051818001502e-16
    14   -7.008491374486e-01
    15   -8.522336127637e-03
    16    6.653497844557e-16
    17    8.712046739912e-17
    18   -6.848363436352e-10
    19    9.311624183557e-16
    20   -8.009083936598e-01
    21    3.319208875870e-16
    22    1.944895165304e-15
    23   -3.412032965779e-09
    24    6.427071945117e-15
    25   -1.288542698051e-02
    26   -9.603464710933e-17
    27    3.518647401713e-17
    28   -3.445719337075e-09
    29   -5.323805927983e-16
    30   -7.097198459731e-18
    31   -3.247704876556e-16
    32    5.407743648004e-03
    33    2.601624980731e-02
    34   -2.907512285813e-01
    35    1.056836597788e+00
    36   -4.596433154730e-01
    37    1.995399720459e-15
    38   -1.034276490519e-15
    39    1.592032725759e-01
    40   -3.270065508783e-15
    41    1.256803122414e-15
    42   -5.605037430990e-01
    43    2.042723279019e-15
    44   -2.260060854392e-15
    45    7.008491374486e-01
    46   -8.522336127641e-03
    47   -5.480364612689e-16
    48   -5.050052263729e-16
    49   -6.848362792724e-10
    50   -4.909671949823e-17
    51   -8.009083936597e-01
    52    5.469561647737e-17
    53    2.714136541088e-15
    54   -3.412026893480e-09
    55   -3.622532142116e-15
    56    1.288542698051e-02
    57    3.992803420371e-16
    58    7.798513847385e-16
    59    3.445719799043e-09
    60    9.343513411986e-17
    61    2.976717176206e-17
    62    2.419732048224e-16
Sym=X
Ene= 2.380838
Spin=Alpha
Occup=0
     1    1.866906575785e-16
     2    2.593365827140e-16
     3    8.154119136223e-15
     4   -2.889770509368e-14
     5   -6.908995071987e-14
     6    3.049017119164e-01
     7    2.696833115330e-09
     8   -8.766627000598e-15
     9   -1.590205313990e-01
    10    1.398220222156e-08
    11   -2.634203804189e-14
    12    6.182480556423e-01
    13   -3.696705317378e-08
    14   -3.469536489825e-14
    15    7.075859145401e-16
    16   -1.390911910642e-02
    17    4.006937648300e-10
    18   -2.127142508533e-16
    19   -2.630702798926e-16
    20   -3.350541347934e-14
    21    1.045013096438e+00
    22   -1.545115924876e-08
    23    1.316556579425e-15
    24   -8.270849752942e-16
    25   -1.354115348684e-15
    26    3.649362272569e-03
    27   -9.776821718408e-11
    28   -1.145972254495e-16
    29   -3.841544065449e-16
    30    5.052090289809e-09
    31    3.545671455213e-16
    32   -5.394642559019e-16
    33   -1.482285510468e-15
    34   -1.057685718209e-15
    35    2.194262548362e-14
    36    7.117055497171e-14
    37   -3.049017119164e-01
    38   -2.696827432810e-09
    39   -8.443944978578e-15
    40    1.590205313989e-01
    41   -1.398221011889e-08
    42   -2.793018502542e-14
    43   -6.182480556423e-01
    44    3.696705641251e-08
    45   -3.347875672635e-14
    46   -7.121793784170e-16
    47   -1.390911910642e-02
    48    4.006941664049e-10
    49    9.354542146664e-17
    50   -5.199837688476e-16
    51    3.156933468889e-14
    52    1.045013096438e+00
    53   -1.545116120813e-08
    54   -1.439543350781e-15
    55    1.738547281086e-15
    56   -1.421177245200e-15
    57   -3.649362272569e-03
    58    9.776821993524e-11
    59    1.259130548569e-17
    60   -1.550735746706e-16
    61   -5.052090375308e-09
    62   -6.950920067120e-16
Sym=X
Ene= 2.380838
Spin=Alpha
Occup=0
     1   -1.107729075409e-16
     2   -5.755881618883e-16
     3    1.938010042844e-15
     4    4.329473006819e-15
     5    2.479785240001e-14
     6   -1.076390406148e-08
     7   -3.049017670785e-01
     8    1.222417825768e-15
     9   -3.857357048142e-09
    10    1.590207289990e-01
    11    1.076476027256e-14
    12    2.831900459792e-09
    13   -6.182481490170e-01
    14    1.036469018687e-14
    15   -8.072710633859e-16
    16    9.645678204187e-11
    17    1.390912070509e-02
    18   -3.124133527604e-16
    19    9.759128900385e-16
    20    1.138150856358e-14
    21   -1.316583247719e-08
    22   -1.045013035099e+00
    23    5.092814156853e-16
    24   -3.316665722888e-16
    25   -3.170834222886e-16
    26   -3.268028774976e-12
    27   -3.649362315521e-03
    28    1.150003129220e-16
    29    5.094167076820e-16
    30   -2.485445083625e-15
    31   -5.049522890369e-09
    32    2.854748465903e-16
    33    7.807040793646e-16
    34   -1.724333388352e-15
    35   -2.551858814059e-15
    36   -2.704246493087e-14
    37    1.076390633830e-08
    38    3.049017670785e-01
    39    3.981515502038e-15
    40    3.857355156860e-09
    41   -1.590207289990e-01
    42    6.952030037971e-15
    43   -2.831900397342e-09
    44    6.182481490170e-01
    45    1.193262198987e-14
    46   -3.130196089926e-17
    47    9.645674759135e-11
    48    1.390912070509e-02
    49   -1.869214086686e-16
    50   -1.047025193925e-15
    51   -1.260721323921e-14
    52   -1.316583276515e-08
    53   -1.045013035099e+00
    54    1.129070502638e-15
    55    3.916765660727e-15
    56    4.119449541687e-16
    57    3.267996594500e-12
    58    3.649362315522e-03
    59    3.194524657462e-16
    60   -5.744033105169e-16
    61    2.734705498908e-15
    62    5.049523353680e-09
Sym=X
Ene= 2.427152
Spin=Alpha
Occup=0
     1    1.075637773924e-02
     2    1.688361752324e-02
     3    3.148615203289e-01
     4   -1.165812703070e+00
     5   -3.315980297422e+00
     6   -1.021403119992e-15
     7    1.034599514046e-14
     8   -4.566179592074e-01
     9   -5.879076465197e-15
    10   -1.500947917245e-14
    11   -1.066891516996e+00
    12   -9.103780719277e-15
    13    2.163525057703e-17
    14   -1.671959023954e+00
    15    3.194193568202e-02
    16   -1.937142015239e-16
    17    6.484488979612e-16
    18    7.089204726502e-11
    19   -1.003187523357e-15
    20   -1.431568178102e+00
    21   -2.589941910781e-14
    22   -1.042679048812e-14
    23   -1.692378185582e-08
    24   -3.100200975242e-15
    25   -6.229467592616e-02
    26    1.390089130535e-17
    27   -5.994673531883e-16
    28   -1.988061868575e-09
    29    8.498993647161e-16
    30    1.082654384990e-18
    31    1.076875581702e-15
    32   -1.075637773925e-02
    33   -1.688361752328e-02
    34   -3.148615203287e-01
    35    1.165812703070e+00
    36    3.315980297422e+00
    37    2.820099158105e-15
    38    1.358498299431e-14
    39   -4.566179592074e-01
    40    3.732331198532e-15
    41   -1.408802898990e-14
    42   -1.066891516996e+00
    43    1.000264590554e-14
    44    1.180904697632e-14
    45   -1.671959023954e+00
    46   -3.194193568202e-02
    47    8.031721488659e-16
    48   -6.023698550932e-16
    49   -7.089148210524e-11
    50    1.231433781802e-15
    51    1.431568178102e+00
    52   -2.594589068497e-14
    53   -9.116177624312e-15
    54    1.692379180018e-08
    55    3.873157675929e-15
    56   -6.229467592616e-02
    57    8.339260581111e-17
    58    7.001147686237e-16
    59   -1.988062275582e-09
    60    1.234214813960e-15
    61    2.803821648521e-19
    62   -1.337150486061e-15
Sym=X
Ene= 2.756330
Spin=Alpha
Occup=0
     1    9.599488674353e-17
     2    2.697310873633e-16
     3   -1.291391126353e-15
     4    1.435143389544e-15
     5   -6.944693797949e-15
     6   -8.574749505964e-01
     7    4.900498539595e-15
     8   -3.432409353914e-16
     9    1.070089908704e+00
    10   -7.199897085311e-15
    11   -9.613360792998e-16
    12   -4.227001176714e-01
    13    2.998077454955e-15
    14   -3.246299155427e-15
    15    3.737555307130e-17
    16    3.346799927467e-04
    17    4.470005272706e-17
    18   -7.413703957108e-18
    19   -4.883425672195e-16
    20   -1.483585403346e-15
    21   -1.018027541907e-01
    22   -1.627579161921e-15
    23    6.226401606376e-16
    24    1.300484931182e-15
    25   -1.956286620995e-17
    26   -1.409271624940e-02
    27   -1.061603855352e-16
    28   -3.526992357382e-16
    29   -3.018070457419e-16
    30   -1.708940495691e-09
    31   -2.252463622591e-16
    32    1.190050314262e-16
    33    4.105481882265e-16
    34   -2.658499006623e-15
    35    3.452449944657e-15
    36    5.160055660324e-15
    37   -8.574749505964e-01
    38    3.847477435781e-15
    39   -7.211971354602e-16
    40    1.070089908704e+00
    41   -2.977540828061e-15
    42   -3.374497020671e-16
    43   -4.227001176714e-01
    44    5.679628940913e-16
    45   -3.239581972051e-15
    46    1.180707606915e-16
    47   -3.346799927460e-04
    48    4.092567029623e-16
    49   -6.177532713393e-17
    50   -9.109634112792e-17
    51    1.468206421468e-15
    52    1.018027541907e-01
    53   -2.686903790681e-15
    54    4.819670536538e-16
    55   -1.291527284230e-15
    56   -2.159567405048e-16
    57   -1.409271624940e-02
    58   -2.300195654875e-16
    59    2.193512169246e-16
    60   -4.521019667217e-17
    61   -1.708939964244e-09
    62   -4.732586683822e-16
[5D7F]

======= END OF MOLDEN-FORMATTED INPUT FILE =======


        *************************************************************
        *                                                           *
        *  Thank you very much for using Q-Chem.  Have a nice day.  *
        *                                                           *
        *************************************************************


