                  Welcome to Q-Chem
     A Quantum Leap Into The Future Of Chemistry


 Q-Chem 6.0 (devel), Q-Chem, Inc., Pleasanton, CA (2022)

 E. Epifanovsky,  A. T. B. Gilbert,  Xintian Feng,  Joonho Lee,  Yuezhi Mao,  
 N. Mardirossian,  P. Pokhilko,  A. White,  M. Wormit,  M. P. Coons,  
 A. L. Dempwolff,  Zhengting Gan,  D. Hait,  P. R. Horn,  L. D. Jacobson,  
 I. Kaliman,  J. Kussmann,  A. W. Lange,  Ka Un Lao,  D. S. Levine,  Jie Liu,  
 S. C. McKenzie,  A. F. Morrison,  K. Nanda,  F. Plasser,  D. R. Rehn,  
 M. L. Vidal,  Zhi-Qiang You,  Ying Zhu,  B. Alam,  B. Albrecht,  
 A. Aldossary,  E. Alguire,  J. H. Andersen,  V. Athavale,  D. Barton,  
 K. Begam,  A. Behn,  N. Bellonzi,  Y. A. Bernard,  E. J. Berquist,  
 H. Burton,  A. Carreras,  K. Carter-Fenk,  Romit Chakraborty,  
 Chandrima Chakravarty,  Junhan Chen,  A. D. Chien,  K. D. Closser,  
 V. Cofer-Shabica,  L. Cunha,  S. Dasgupta,  Jia Deng,  M. de Wergifosse,  
 M. Diedenhofen,  Hainam Do,  S. Ehlert,  Po-Tung Fang,  S. Fatehi,  
 Qingguo Feng,  T. Friedhoff,  B. Ganoe,  J. Gayvert,  Qinghui Ge,  
 G. Gidofalvi,  M. Goldey,  J. Gomes,  C. Gonzalez-Espinoza,  S. Gulania,  
 A. Gunina,  J. A. Gyamfi,  M. W. D. Hanson-Heine,  P. H. P. Harbach,  
 A. W. Hauser,  M. F. Herbst,  M. Hernandez Vera,  M. Hodecker,  
 Z. C. Holden,  S. Houck,  Xunkun Huang,  Kerwin Hui,  B. C. Huynh,  
 K. Ikeda,  M. Ivanov,  Hyunjun Ji,  Zuxin Jin,  Hanjie Jiang,  B. Kaduk,  
 S. Kaehler,  R. Kang,  K. Khistyaev,  Jaehoon Kim,  Yongbin Kim,  
 P. Klunzinger,  Z. Koczor-Benda,  Joong Hoon Koh,  D. Kosenkov,  
 Saikiran Kotaru,  L. Koulias,  T. Kowalczyk,  C. M. Krauter,  K. Kue,  
 A. Kunitsa,  T. Kus,  A. Landau,  K. V. Lawler,  D. Lefrancois,  S. Lehtola,  
 Rain Li,  Shaozhi Li,  Yi-Pei Li,  Jiashu Liang,  M. Liebenthal,  
 Hung-Hsuan Lin,  You-Sheng Lin,  Fenglai Liu,  Kuan-Yu Liu,  
 M. Loipersberger,  A. Luenser,  C. Malbon,  A. Manjanath,  P. Manohar,  
 E. Mansoor,  S. F. Manzer,  Shan-Ping Mao,  A. V. Marenich,  T. Markovich,  
 S. Mason,  F. Matz,  S. A. Maurer,  P. F. McLaughlin,  M. F. S. J. Menger,  
 J.-M. Mewes,  S. A. Mewes,  P. Morgante,  Mohammad Mostafanejad,  
 J. W. Mullinax,  K. J. Oosterbaan,  G. Paran,  V. Parravicini,  
 Alexander C. Paul,  Suranjan K. Paul,  F. Pavosevic,  Zheng Pei,  S. Prager,  
 E. I. Proynov,  E. Ramos,  B. Rana,  A. E. Rask,  A. Rettig,  R. M. Richard,  
 F. Rob,  E. Rossomme,  T. Scheele,  M. Scheurer,  M. Schneider,  
 P. E. Schneider,  N. Sergueev,  S. M. Sharada,  Hengyuan Shen,  
 W. Skomorowski,  D. W. Small,  C. J. Stein,  Yingli Su,  Yu-Chuan Su,  
 E. J. Sundstrom,  Zhen Tao,  J. Thirman,  Hung-Yi Tsai,  T. Tsuchimochi,  
 N. M. Tubman,  C. Utku,  S. P. Veccham,  O. Vydrov,  J. Wenzel,  
 Jonathan Wong,  J. Witte,  A. Yamada,  Chou-Hsun Yang,  Kun Yao,  
 S. Yeganeh,  S. R. Yost,  A. Zech,  F. Zeller,  Igor Ying Zhang,  
 Xing Zhang,  Yu Zhang,  D. Zuev,  A. Aspuru-Guzik,  A. T. Bell,  
 N. A. Besley,  K. B. Bravaya,  B. R. Brooks,  D. Casanova,  Jeng-Da Chai,  
 Hsing-Ta Chen,  S. Coriani,  C. J. Cramer,  A. E. DePrince, III,  
 R. A. DiStasio Jr.,  A. Dreuw,  B. D. Dunietz,  T. R. Furlani,  
 W. A. Goddard III,  S. Grimme,  S. Hammes-Schiffer,  T. Head-Gordon,  
 W. J. Hehre,  Chao-Ping Hsu,  T.-C. Jagau,  Yousung Jung,  A. Klamt,  
 Jing Kong,  D. S. Lambrecht,  Xiangyuan Li,  WanZhen Liang,  N. J. Mayhall,  
 C. W. McCurdy,  J. B. Neaton,  T. Neudecker,  C. Ochsenfeld,  
 J. A. Parkhill,  R. Peverati,  V. A. Rassolov,  Haisheng Ren,  Yihan Shao,  
 L. V. Slipchenko,  R. P. Steele,  J. E. Subotnik,  A. J. W. Thom,  
 A. Tkatchenko,  D. G. Truhlar,  T. Van Voorhis,  Fan Wang,  
 T. A. Wesolowski,  K. B. Whaley,  H. L. Woodcock III,  P. M. Zimmerman,  
 S. Faraji,  P. M. W. Gill,  M. Head-Gordon,  J. M. Herbert,  A. I. Krylov

 Contributors to earlier versions of Q-Chem not listed above: 
 R. D. Adamson,  B. Austin,  R. Baer,  J. Baker,  G. J. O. Beran,  
 K. Brandhorst,  S. T. Brown,  E. F. C. Byrd,  Arup K. Chakraborty,  
 G. K. L. Chan,  Chun-Min Chang,  Yunqing Chen,  C.-L. Cheng,  
 Siu Hung Chien,  D. M. Chipman,  D. L. Crittenden,  H. Dachsel,  
 R. J. Doerksen,  A. D. Dutoi,  R. G. Edgar,  J. Fosso-Tande,  
 L. Fusti-Molnar,  D. Ghosh,  A. Ghysels,  A. Golubeva-Zadorozhnaya,  
 J. Gonthier,  M. S. Gordon,  S. R. Gwaltney,  G. Hawkins,  J. E. Herr,  
 A. Heyden,  S. Hirata,  E. G. Hohenstein,  G. Kedziora,  F. J. Keil,  
 C. Kelley,  Jihan Kim,  R. A. King,  R. Z. Khaliullin,  P. P. Korambath,  
 W. Kurlancheek,  A. Laurent,  A. M. Lee,  M. S. Lee,  S. V. Levchenko,  
 Ching Yeh Lin,  D. Liotard,  E. Livshits,  R. C. Lochan,  I. Lotan,  
 L. A. Martinez-Martinez,  P. E. Maslen,  N. Nair,  D. P. O'Neill,  
 D. Neuhauser,  E. Neuscamman,  C. M. Oana,  R. Olivares-Amaya,  R. Olson,  
 T. M. Perrine,  B. Peters,  P. A. Pieniazek,  A. Prociuk,  Y. M. Rhee,  
 J. Ritchie,  M. A. Rohrdanz,  E. Rosta,  N. J. Russ,  H. F. Schaefer III,  
 M. W. Schmidt,  N. E. Schultz,  S. Sharma,  N. Shenvi,  C. D. Sherrill,  
 A. C. Simmonett,  A. Sodt,  T. Stein,  D. Stuck,  K. S. Thanthiriwatte,  
 V. Vanovschi,  L. Vogt,  Tao Wang,  A. Warshel,  M. A. Watson,  
 C. F. Williams,  Q. Wu,  X. Xu,  Jun Yang,  W. Zhang,  Yan Zhao

   Please cite Q-Chem as follows:
  "Software for the frontiers of quantum chemistry:
   An overview of developments in the Q-Chem 5 package"
   J. Chem. Phys. 155, 084801 (2021)
   https://doi.org/10.1063/5.0055522 (open access)

 Q-Chem 6.0.1 for Intel X86 EM64T Linux

 Parts of Q-Chem use Armadillo 9.900.5 (Nocturnal Misbehaviour).
 http://arma.sourceforge.net/

 Q-Chem begins on Tue Sep 12 05:28:30 2023  

 Host: atlas-012
0

     Scratch files written to ./qchem5225//
 Processing $rem in /scratch/abel/SOFTWARE/qchem/config/preferences:
 Processing $rem in /dipc/acebg/.qchemrc:

 Checking the input file for inconsistencies... 	...done.

--------------------------------------------------------------
User input:
--------------------------------------------------------------
$comment
 RAS-SF CALCULATION
$end

$molecule
 READ quinoline.molecule
$end

$rem
!**CALCULATION TYPE***     
JOBTYPE            sp    
EXCHANGE           HF
CORRELATION        RASCI    !RASCI=Casanova; RASCI2=Zimmerman
BASIS              def2-TZVP

!***SCF REFERENCE***
INPUT_BOHR          TRUE
!SKIP_SCFMAN        FALSE
UNRESTRICTED       FALSE
!SCF_GUESS          core
!SCF_GUESS_MIX      FALSE
!SCF_GUESS_ALWAYS   FALSE
MAX_SCF_CYCLES     999
!SCF_CONVERGENCE    8
SCF_ALGORITHM      DIIS_GDM !DIIS,DM,DIIS_DM,GDM,DIIS_GDM,GD

!SYMMETRY           TRUE   !use of symmetry for calculating integrals
!SYM_IGNORE         FALSE  !turn off using symmetry
!SYM_TOL            5      !tolerance for determining point group
!USE_ABELIAN_SUBGROUP      !define to use abelian group

!THRESH             14
SCF_FINAL_PRINT     1 !0,1,2,3

!****RAS-SF****
RAS_ROOTS          30       !number of RAS-CI roots to be computed
SET_ITER           150     !number of iterations in RASCI
RAS_ELEC           10       !number of electrons in RAS2
RAS_ELEC_ALPHA     6       !spin-α electrons in RAS2 
RAS_ELEC_BETA      4       !spin-β electrons in RAS2

RAS_ACT            8       !number of orbitals in RAS2 
RAS_ACT_ORB  [27,30,32,33,34,35,36,37]  !user-selected RAS2 orbitals
RAS_OCC            29       !number of orbitals in RAS1
N_FROZEN_CORE      FC     !Number of frozen core orbitals
N_FROZEN_VIRTUAL   0      !Number of frozen virtual orbitals

RAS_DO_HOLE        TRUE   !presence of hole excitations in RAS-CI wave function
RAS_DO_PART        TRUE   !presence of particle excitations
!RAS_AMPL_PRINT     10     !threshold (×10 2 ) for the CI amplitudes

!RAS_GUESS_CS       0      !number of closed shell guess conﬁgurations
!RAS_SPIN_MULT      0      !spin multiplicity. Only for Ms = 0 
!RAS_SRDFT          FALSE  !short-range density functional RAS-CI
!RAS_NFRAG          0     !fragments of excitation analysis in RASCI

RAS_PRINT          2      !level of information
RAS_NATORB         TRUE   !computation of the natural orbital occupancies
!RAS_NATORB_STATE  0      !Saves NO of i RAS computed state in .fchk ﬁle
!RAS_FOD            TRUE

!****RAS-SOC****
CALC_SOC           TRUE   !calculate SOC for EOM-CC, RAS-CI, ADC, TDDFT/TDA and TDDFT
!RAS_SOC_2E        TRUE   !two-electron mean-ﬁeld contribution, default=true
RAS_SOC_SYM_DENS   TRUE   !averaging of α and β densities

!****MEMORY****
MEM_TOTAL          60000 !Default 2000 MB
MEM_STATIC         10000  !Default 64 MB

!**Molecular Properties and Analysis **                                                                                          
POP_MULLIKEN       TRUE   !Run Mulliken population analysis
LOWDIN_POPULATION  TRUE   !Run Löwdin population analysis
GUI                2       !Checkpoints generation
STATE_ANALYSIS     TRUE

!**Wave function analysis of RAS-CI states: MOLDEN**
!PLOTS = 0     ! Note: This can be omitted, default is 0
!NTO_PAIRS = 2 ! Note: This can be omitted, default is 2
!GUI 0
!MOLDEN_FORMAT      TRUE
!PRINT_ORBITALS     15

!**Wave function analysis of RAS-CI state: CUBE**
!NTO_PAIRS = 2 ! Note: This can be omitted, default is 2
!PLOTS = 1
!GUI 0

!**SR-DFT**
!RAS_SRDFT           TRUE !Perform short-range density functional RAS-CI
!RAS_SRDFT_EXC       0 !EX functional. 0=HF. 
!RAS_SRDFT_ONLY_COR  TRUE !No use of EXC functional
!RAS_SRDFT_COR       srPBE !short-range correlation functional
!ras_srdft_0         TRUE !true: no iteration (one-shot); false: iteration
!RAS_OMEGA           400 !Coulomb range-separation parameter. def=400
!RAS_SRDFT_DAMP     0.5 !dumping factor. def=0.5
$end

!$plots
!   grid_points 100 100 100
!   grid_range  (-10,10) (-10,10) (-10,10)
!$end

--------------------------------------------------------------
 ----------------------------------------------------------------
             Standard Nuclear Orientation (Bohr)
    I     Atom           X                Y                Z
 ----------------------------------------------------------------
    1      C      -0.0559353627    -1.3989916065    -0.0000000000
    2      C      -0.0782415914     1.3256554364     0.0000000000
    3      C       2.3016375305    -2.6538713366    -0.0000000000
    4      C       4.6667611846    -1.2654684416    -0.0000000000
    5      C       4.6497706855     1.3016649328    -0.0000000000
    6      C       2.2722800840     2.6377967747    -0.0000000000
    7      N      -2.2102262665     2.6945577754     0.0000000000
    8      C      -2.3995793248    -2.6420616021     0.0000000000
    9      C      -4.6640560358    -1.1648929097     0.0000000000
   10      C      -4.4878393265     1.4051065478     0.0000000000
   11      H      -2.4867924844    -4.6867516752     0.0000000000
   12      H      -6.4947443947    -2.0790860337     0.0000000000
   13      H      -6.1538984074     2.5944746854     0.0000000000
   14      H       2.3432526882    -4.7016054474    -0.0000000000
   15      H       6.4266657394    -2.3097175760    -0.0000000000
   16      H       6.3951035242     2.3693643728    -0.0000000000
   17      H       2.2132101396     4.6817904753    -0.0000000000
 ----------------------------------------------------------------
 Molecular Point Group                 Cs    NOp =  2
 Largest Abelian Subgroup              Cs    NOp =  2
 Nuclear Repulsion Energy =         458.56962217 hartrees
 There are       35 alpha and       33 beta electrons
 Requested basis set is def2-TZVP
 There are 138 shells and 352 basis functions

 Q-Chem warning in module libmdc/get_mega.C, line 167:

 Allowed MEM_STATIC has been capped at MEM_STATIC=8191.
 Reduce the value of MEM_STATIC to silence this warning.


 Total QAlloc Memory Limit  60000 MB
 Mega-Array Size      8007 MB
 MEM_STATIC part      8191 MB

 A cutoff of  1.0D-09 yielded   8146 shell pairs
 There are     53734 function pairs (     69986 Cartesian)
 Smallest overlap matrix eigenvalue = 8.95E-06

 Q-Chem warning in module stvman/mkSTV.C, line 313:

 Overlap eigenvalue is smaller than square root of threshold
 Use THRESH >= 12 to get rid of this warning


 Scale SEOQF with 1.000000e-01/1.000000e-01/1.000000e+00

 Standard Electronic Orientation quadrupole field applied
 Nucleus-field energy     =     0.0000000148 hartrees
 Guess from superposition of atomic densities
 Warning:  Energy on first SCF cycle will be non-variational
 SAD guess density has 68.000000 electrons

 -----------------------------------------------------------------------
  General SCF calculation program by
  Eric Jon Sundstrom, Paul Horn, Yuezhi Mao, Dmitri Zuev, Alec White,
  David Stuck, Shaama M.S., Shane Yost, Joonho Lee, David Small,
  Daniel Levine, Susi Lehtola, Hugh Burton, Evgeny Epifanovsky,
  Bang C. Huynh
 -----------------------------------------------------------------------
 Hartree-Fock
 Orthonormalizing orbitals
 A restricted open-shell SCF calculation will be
 performed using DIIS, GDM
 SCF converges when RMS gradient is below 1.0e-05
 ---------------------------------------
  Cycle       Energy         DIIS error
 ---------------------------------------
    1    -396.5781026976      3.09e-02  
    2    -396.3847307891      2.99e-02  
    3    -398.7075159200      1.34e-02  
    4    -399.3027653795      3.98e-03  Done DIIS. Switching to GDM
 ---------------------------------------
  Cycle       Energy        RMS Gradient
 ---------------------------------------
    1    -399.3027653795      6.61e-02   Descent step
    2    -399.3553090883      7.64e-02   Normal BFGS step
    3    -399.3739134794      3.45e-02   Normal BFGS step
    4    -399.3786522039      2.82e-02   Normal BFGS step
    5    -399.3809969457      1.99e-02   Normal BFGS step
    6    -399.3819969647      8.37e-03   Normal BFGS step
    7    -399.3825111903      3.88e-03   Normal BFGS step
    8    -399.3826271659      1.64e-03   Normal BFGS step
    9    -399.3826550282      8.36e-04   Normal BFGS step
   10    -399.3826582381      4.26e-04   Normal BFGS step
   11    -399.3826591830      9.07e-05   Normal BFGS step
   12    -399.3826593418      3.73e-05   Normal BFGS step
   13    -399.3826595607      1.61e-05   Normal BFGS step
   14    -399.3826603106      5.45e-06  Convergence criterion met
The disked orbital energies are calculated using alpha and beta Focks
 ---------------------------------------
 Alpha HF Exchange    Energy = -28.34882502428649
 Beta HF Exchange     Energy = -27.46542182525537
 Nuclear Attraction   Energy =   0.00000000000000
 One-Electron (alpha) Energy = -740.48648922337713
 One-Electron (beta)  Energy = -708.47447590732099
 Total Coulomb        Energy = 646.82292948821578
 Final Alpha MO Eigenvalues
            1           2           3           4           5           6
    1 -15.5611834 -11.2853516 -11.2645624 -11.2554244 -11.2515203 -11.2503320
            7           8           9          10          11          12
    1 -11.2541942 -11.2458872 -11.2510193 -11.2343973  -1.2510311  -1.1509689
           13          14          15          16          17          18
    1  -1.0915886  -1.0324038  -1.0155447  -0.9002035  -0.8494516  -0.8347890
           19          20          21          22          23          24
    1  -0.7356495  -0.7062449  -0.6902562  -0.6343977  -0.6268214  -0.5995643
           25          26          27          28          29          30
    1  -0.5768235  -0.5654221  -0.5666910  -0.5304633  -0.5023272  -0.4815402
           31          32          33          34          35          36
    1  -0.4172263  -0.4143652  -0.3646019  -0.3965469  -0.2399094   0.1080848
           37          38          39          40          41          42
    1   0.1127423   0.1517373   0.1630754   0.1739667   0.1887824   0.1965509
           43          44          45          46          47          48
    1   0.2042991   0.2128497   0.2074366   0.2301130   0.2660015   0.2877991
           49          50          51          52          53          54
    1   0.2948296   0.2996666   0.3111620   0.3212232   0.3281754   0.3492084
           55          56          57          58          59          60
    1   0.3512223   0.3595298   0.3763348   0.3748516   0.3966300   0.4046489
           61          62          63          64          65          66
    1   0.4211100   0.4197454   0.4420070   0.4557197   0.4529847   0.4588384
           67          68          69          70          71          72
    1   0.4752832   0.4900547   0.5001617   0.5034621   0.5035662   0.5252772
           73          74          75          76          77          78
    1   0.5332578   0.5571661   0.5614610   0.5741262   0.5740879   0.5812648
           79          80          81          82          83          84
    1   0.5807579   0.6038738   0.6192971   0.6264880   0.6361400   0.6424815
           85          86          87          88          89          90
    1   0.6521836   0.6685195   0.6838264   0.6915699   0.7061325   0.7157265
           91          92          93          94          95          96
    1   0.7330100   0.7463197   0.7780087   0.7910118   0.8274056   0.8443219
           97          98          99         100         101         102
    1   0.8453375   0.8595672   0.8572325   0.8645900   0.8747816   0.8933362
          103         104         105         106         107         108
    1   0.9036217   0.9157941   0.9213902   0.9483700   0.9652206   0.9801817
          109         110         111         112         113         114
    1   0.9906518   1.0045779   1.0194519   1.0349300   1.0621632   1.0881638
          115         116         117         118         119         120
    1   1.0861637   1.0979345   1.1233334   1.1521257   1.1707550   1.1987825
          121         122         123         124         125         126
    1   1.1961244   1.2311612   1.2383189   1.2944284   1.3252023   1.3354176
          127         128         129         130         131         132
    1   1.3437359   1.3647710   1.3873197   1.4121260   1.4251554   1.4311305
          133         134         135         136         137         138
    1   1.4454212   1.4454105   1.4646703   1.4970713   1.5091006   1.5291107
          139         140         141         142         143         144
    1   1.5326862   1.5550125   1.5774416   1.6119517   1.6284402   1.6692346
          145         146         147         148         149         150
    1   1.6789877   1.7057541   1.7001174   1.7178701   1.7327420   1.7523375
          151         152         153         154         155         156
    1   1.7630870   1.7657028   1.7966317   1.8121035   1.8235405   1.8339022
          157         158         159         160         161         162
    1   1.8580602   1.8779048   1.8931307   1.9007806   1.9412518   1.9483927
          163         164         165         166         167         168
    1   1.9679229   1.9789855   1.9874348   2.0113616   2.0146892   2.0301372
          169         170         171         172         173         174
    1   2.0589441   2.0720457   2.0925704   2.1247325   2.1483423   2.2093406
          175         176         177         178         179         180
    1   2.2118404   2.2326413   2.2596569   2.2635219   2.2870119   2.3025373
          181         182         183         184         185         186
    1   2.3378713   2.3429665   2.3958118   2.4257500   2.4366160   2.4478182
          187         188         189         190         191         192
    1   2.4538372   2.4759033   2.5111663   2.5395493   2.5435905   2.5771510
          193         194         195         196         197         198
    1   2.5792450   2.6168396   2.6427945   2.6683250   2.7208411   2.7403833
          199         200         201         202         203         204
    1   2.7567885   2.7916187   2.7965387   2.8161608   2.8381603   2.8680111
          205         206         207         208         209         210
    1   2.8852459   2.9013033   2.9142113   2.9202802   2.9498901   2.9519732
          211         212         213         214         215         216
    1   2.9688171   2.9727777   2.9790249   3.0045128   3.0229362   3.0377234
          217         218         219         220         221         222
    1   3.0469628   3.0517185   3.0713578   3.0800190   3.1015924   3.1126206
          223         224         225         226         227         228
    1   3.1316723   3.1302064   3.1619054   3.1652836   3.1761993   3.2038021
          229         230         231         232         233         234
    1   3.2154438   3.2228287   3.2222635   3.2553575   3.2863370   3.2882410
          235         236         237         238         239         240
    1   3.3034381   3.3241202   3.3287002   3.3618896   3.3651725   3.3984416
          241         242         243         244         245         246
    1   3.4020413   3.4174664   3.4182486   3.4460567   3.4494309   3.4709636
          247         248         249         250         251         252
    1   3.4812450   3.5096595   3.5152707   3.5171748   3.5599242   3.5685115
          253         254         255         256         257         258
    1   3.5833988   3.5922844   3.6092747   3.6108160   3.6097388   3.6191895
          259         260         261         262         263         264
    1   3.6457922   3.6588363   3.6770104   3.6922284   3.6959953   3.7152729
          265         266         267         268         269         270
    1   3.7314427   3.7506305   3.7754061   3.7755744   3.8087873   3.8288810
          271         272         273         274         275         276
    1   3.8321119   3.8492158   3.8533046   3.8769431   3.8985119   3.9274390
          277         278         279         280         281         282
    1   3.9423545   3.9657436   4.0074949   4.0486332   4.0679450   4.0879975
          283         284         285         286         287         288
    1   4.1140004   4.1616534   4.1644631   4.1865911   4.1999484   4.2213313
          289         290         291         292         293         294
    1   4.2659057   4.2997523   4.3193924   4.3832567   4.3910358   4.3988990
          295         296         297         298         299         300
    1   4.4279684   4.4443630   4.4549460   4.4721496   4.5271528   4.5425612
          301         302         303         304         305         306
    1   4.5491135   4.5536355   4.5862276   4.5934201   4.6288058   4.6524979
          307         308         309         310         311         312
    1   4.6697038   4.7249762   4.7715452   4.8098836   4.8101749   4.9128372
          313         314         315         316         317         318
    1   4.9323942   4.9454857   4.9568852   5.0327929   5.0559484   5.1171281
          319         320         321         322         323         324
    1   5.1479503   5.1841694   5.2355318   5.2633170   5.3000251   5.3182992
          325         326         327         328         329         330
    1   5.3549036   5.3729792   5.4676863   5.4960879   5.5544633   5.5850948
          331         332         333         334         335         336
    1   5.5988856   5.6375688   5.7019572   5.7109475   5.8123255   5.8312474
          337         338         339         340         341         342
    1   5.9254747   6.0421208   6.1642334   6.1762921   6.2822271   6.6386172
          343         344         345         346         347         348
    1  23.2501329  23.5014920  23.6108032  23.7169792  23.8399141  23.9051188
          349         350         351         352
    1  23.9185127  24.0234641  24.5166501  33.8478015
 Final Beta MO Eigenvalues
            1           2           3           4           5           6
    1 -15.5588561 -11.2849787 -11.2637911 -11.2533006 -11.2511124 -11.2483906
            7           8           9          10          11          12
    1 -11.2402129 -11.2436083 -11.2365494 -11.2337788  -1.2402864  -1.1225353
           13          14          15          16          17          18
    1  -1.0760323  -1.0235044  -0.9666914  -0.8790741  -0.8400796  -0.8119118
           19          20          21          22          23          24
    1  -0.7220274  -0.6979317  -0.6823730  -0.6315251  -0.6131058  -0.5892901
           25          26          27          28          29          30
    1  -0.5698541  -0.5587334  -0.5290288  -0.5210252  -0.4940957  -0.4146450
           31          32          33          34          35          36
    1  -0.4123440  -0.3689344  -0.3352878   0.0269400   0.1487056   0.1442035
           37          38          39          40          41          42
    1   0.1463585   0.1539873   0.1643164   0.1756035   0.1905467   0.1985013
           43          44          45          46          47          48
    1   0.2059785   0.2181785   0.2514334   0.2332342   0.2740016   0.2924497
           49          50          51          52          53          54
    1   0.3109921   0.3049181   0.3172638   0.3245809   0.3447199   0.3569001
           55          56          57          58          59          60
    1   0.3549477   0.3639433   0.3858955   0.4103872   0.4129037   0.4095274
           61          62          63          64          65          66
    1   0.4265245   0.4310851   0.4479299   0.4611606   0.4771095   0.4760697
           67          68          69          70          71          72
    1   0.4799758   0.4951569   0.5070950   0.5186585   0.5251914   0.5391438
           73          74          75          76          77          78
    1   0.5394006   0.5608223   0.5705522   0.5792311   0.5860400   0.5852695
           79          80          81          82          83          84
    1   0.5887105   0.6096087   0.6267452   0.6378894   0.6588774   0.6478196
           85          86          87          88          89          90
    1   0.6552584   0.6732934   0.6972141   0.6954155   0.7099505   0.7225942
           91          92          93          94          95          96
    1   0.7454215   0.7513432   0.7854299   0.7962831   0.8306442   0.8475611
           97          98          99         100         101         102
    1   0.8495691   0.8667852   0.8724227   0.8712376   0.8784483   0.8997119
          103         104         105         106         107         108
    1   0.9260309   0.9223280   0.9543879   0.9534613   0.9804479   0.9852910
          109         110         111         112         113         114
    1   0.9960339   1.0209239   1.0230399   1.0488831   1.0667717   1.0947302
          115         116         117         118         119         120
    1   1.1057284   1.1122692   1.1307316   1.1581585   1.1767470   1.2046119
          121         122         123         124         125         126
    1   1.2160664   1.2450260   1.2522497   1.3053109   1.3431901   1.3394382
          127         128         129         130         131         132
    1   1.3540388   1.3697148   1.3943183   1.4203676   1.4451255   1.4397722
          133         134         135         136         137         138
    1   1.4489982   1.4590339   1.4680312   1.5015193   1.5133584   1.5429480
          139         140         141         142         143         144
    1   1.5364097   1.5627206   1.5837616   1.6180341   1.6332038   1.6914860
          145         146         147         148         149         150
    1   1.6821639   1.7091647   1.7232597   1.7223620   1.7387163   1.7608207
          151         152         153         154         155         156
    1   1.7678750   1.8041515   1.8012431   1.8220259   1.8266773   1.8388321
          157         158         159         160         161         162
    1   1.8614914   1.8878955   1.9038439   1.9030528   1.9451388   1.9787574
          163         164         165         166         167         168
    1   1.9739939   1.9899187   1.9928202   2.0175301   2.0187340   2.0393230
          169         170         171         172         173         174
    1   2.0617196   2.0743305   2.1015193   2.1414195   2.1573229   2.2185419
          175         176         177         178         179         180
    1   2.2181114   2.2365672   2.2684191   2.2661750   2.2936290   2.3070539
          181         182         183         184         185         186
    1   2.3425896   2.3488844   2.4049468   2.4347657   2.4477838   2.4570228
          187         188         189         190         191         192
    1   2.4596458   2.4816695   2.5164718   2.5446108   2.5484125   2.5862148
          193         194         195         196         197         198
    1   2.5837509   2.6214536   2.6578182   2.6713625   2.7321165   2.7525034
          199         200         201         202         203         204
    1   2.7601062   2.8007225   2.8059514   2.8192621   2.8440122   2.8709976
          205         206         207         208         209         210
    1   2.8908249   2.9063004   2.9305697   2.9262407   2.9524195   2.9591052
          211         212         213         214         215         216
    1   2.9786940   2.9863291   2.9821768   3.0176057   3.0295246   3.0432369
          217         218         219         220         221         222
    1   3.0538934   3.0580766   3.0821426   3.0841468   3.1089788   3.1185118
          223         224         225         226         227         228
    1   3.1392833   3.1431266   3.1656740   3.1781517   3.1792876   3.2104273
          229         230         231         232         233         234
    1   3.2283481   3.2277703   3.2330187   3.2714035   3.2915207   3.2927610
          235         236         237         238         239         240
    1   3.3104553   3.3306979   3.3400398   3.3660257   3.3736264   3.4075488
          241         242         243         244         245         246
    1   3.4084088   3.4273665   3.4319554   3.4515043   3.4544781   3.4776738
          247         248         249         250         251         252
    1   3.4947255   3.5198887   3.5208401   3.5329508   3.5629968   3.5746754
          253         254         255         256         257         258
    1   3.5872842   3.5952390   3.6159996   3.6135619   3.6251389   3.6299901
          259         260         261         262         263         264
    1   3.6483209   3.6730777   3.6810413   3.6971127   3.7104887   3.7179706
          265         266         267         268         269         270
    1   3.7414805   3.7561276   3.7795172   3.7838198   3.8135048   3.8335789
          271         272         273         274         275         276
    1   3.8423844   3.8592567   3.8586436   3.8860332   3.9020092   3.9297174
          277         278         279         280         281         282
    1   3.9491151   3.9705136   4.0109099   4.0524853   4.0768482   4.0913164
          283         284         285         286         287         288
    1   4.1199933   4.1657493   4.1707143   4.1907185   4.2089816   4.2253803
          289         290         291         292         293         294
    1   4.2701892   4.3058738   4.3239126   4.3896582   4.3969796   4.4112775
          295         296         297         298         299         300
    1   4.4350494   4.4478891   4.4593143   4.4848679   4.5310961   4.5459324
          301         302         303         304         305         306
    1   4.5574281   4.5568454   4.5900911   4.5996375   4.6336400   4.6545570
          307         308         309         310         311         312
    1   4.6762561   4.7311309   4.7737882   4.8135420   4.8148384   4.9210611
          313         314         315         316         317         318
    1   4.9362703   4.9494963   4.9600508   5.0409410   5.0594681   5.1219904
          319         320         321         322         323         324
    1   5.1529664   5.1866027   5.2388901   5.2666398   5.3033731   5.3243667
          325         326         327         328         329         330
    1   5.3605628   5.3770202   5.4705955   5.4991710   5.5572979   5.5879548
          331         332         333         334         335         336
    1   5.6025158   5.6414883   5.7051658   5.7132737   5.8144241   5.8337672
          337         338         339         340         341         342
    1   5.9293530   6.0453057   6.1656549   6.1786308   6.2833765   6.6399449
          343         344         345         346         347         348
    1  23.2527522  23.5032214  23.6155962  23.7202563  23.8439517  23.9084238
          349         350         351         352
    1  23.9198817  24.0243877  24.5175432  33.8491208
 SCF time:   CPU 610.21s  wall 611.00s 
<S^2> =          2.000000000
 SCF   energy in the final basis set =     -399.3826603106
 Total energy in the final basis set =     -399.3826603106
  
     ##========================================##
     ||                                        ||
     ||              R A S M A N 2             ||
     ||________________________________________||
     ||                                        ||
     ||  Author:                               ||
     ||                                        ||
     ||        David Casanova (2010)           ||
     ||                                        ||
     ##========================================##
  
Setting single-point xc-functionals (if necessary)

  ***************************************************
  *  RAS-CI Dimensions:                             *
  *                                                 *
  *  Active Elec.:  10 ( 6, 4)   Active Orb.:   8   *
  *  Doubly Occ. :  29           Doubly Vir.: 315   *
  *  Frozen Occ. :  10           Frozen Vir.:   0   *
  *                                                 *
  *  Total CI configurations:   1771112             * 
  *    Active configurations:      1960             * 
  *      Hole configurations:     40432             * 
  *  Particle configurations:   1728720             * 
  *                                                 *
  *   Requested states:       30                    *
  *  Spin multiplicity: Any multiplicity            *
  *                                                 *
  ***************************************************
-----------------------------------------
    Memory requirements of RASCI

 Each CI-vector requires     13.51 MiB 
 Max. subspace vectors           4500      

 Reduced Lists                0.00 MiB 
 Excitation Lists             0.00 MiB 
 Excitation Lists Sign        0.00 MiB 
 CI-space (Max)           61366.21 MiB 
 Integrals                  128.13 MiB 
 Memory required (Max)    61366.22 MiB 
 Memory available          7811.55 MiB 

 Q-Chem warning in module rasman2/ras_mem_check.C, line 162:

 Static memory may be insufficient to store the subspace vectors


    Disk requirements of RASCI

 Fock matrix                  1.89 MiB 
 2-electron integrals       203.02 MiB 
 CI-space                121612.61 MiB 
 Disk required           121817.52 MiB 
-----------------------------------------
  
RAS1 HF-like energy:           -385.5640479826
 Computing integrals
 Computing J and K matrices
 Computing addressing
 Making amplitude guesses
 
Direct CI diagonalization
 ---------------------------------------------------
 Iter    Rts Conv    Rts Left    Ttl Dev     Max Dev
 ---------------------------------------------------
   1         0          30      0.006462    0.000334
   2         0          30      0.004273    0.000232
   3         0          30      0.003715    0.000199
   4         0          30      0.004137    0.000197
   5         0          30      0.004921    0.000320
   6         0          30      0.003698    0.000246
   7         0          30      0.003459    0.000192
   8         0          30      0.003235    0.000169
   9         0          30      0.002692    0.000188
  10         0          30      0.002598    0.000166
  11         0          30      0.002452    0.000148
  12         0          30      0.002103    0.000152
  13         0          30      0.001990    0.000139
  14         0          30      0.001896    0.000140
  15         0          30      0.001617    0.000199
  16         1          29      0.001523    0.000235
  17         1          29      0.001284    0.000183
  18         1          29      0.001054    0.000122
  19         1          29      0.000933    0.000134
  20         2          28      0.000812    0.000095
  21         3          27      0.000821    0.000077
  22         3          27      0.000828    0.000118
  23         3          27      0.000804    0.000143
  24         4          26      0.000661    0.000107
  25         4          26      0.000601    0.000112
  26         6          24      0.000516    0.000086
  27         7          23      0.000413    0.000060
  28         8          22      0.000387    0.000066
  29         9          21      0.000338    0.000052
  30         9          21      0.000262    0.000039
  31        12          18      0.000243    0.000046
  32        12          18      0.000234    0.000041
  33        13          17      0.000188    0.000034
  34        13          17      0.000185    0.000043
  35        14          16      0.000181    0.000041
  36        16          14      0.000158    0.000041
  37        17          13      0.000169    0.000050
  38        18          12      0.000217    0.000063
  39        19          11      0.000198    0.000056
  40        20          10      0.000218    0.000064
  41        20          10      0.000193    0.000061
  42        21           9      0.000171    0.000062
  43        23           7      0.000186    0.000068
  44        22           8      0.000168    0.000060
  45        25           5      0.000149    0.000057
  46        25           5      0.000156    0.000055
  47        25           5      0.000149    0.000049
  48        25           5      0.000135    0.000046
  49        25           5      0.000129    0.000042
  50        25           5      0.000124    0.000046
  51        25           5      0.000106    0.000038
  52        25           5      0.000095    0.000038
  53        25           5      0.000090    0.000038
  54        25           5      0.000076    0.000029
  55        25           5      0.000069    0.000030
  56        25           5      0.000064    0.000029
  57        25           5      0.000051    0.000020
  58        26           4      0.000046    0.000020
  59        26           4      0.000042    0.000019
  60        26           4      0.000034    0.000013
  61        27           3      0.000030    0.000013
  62        27           3      0.000030    0.000012
  63        26           4      0.000024    0.000009
  64        27           3      0.000022    0.000008
  65        26           4      0.000023    0.000008
  66        26           4      0.000019    0.000006
  67        26           4      0.000017    0.000005
  68        27           3      0.000018    0.000005
  69        27           3      0.000015    0.000004
  70        28           2      0.000013    0.000003
  71        28           2      0.000014    0.000003
  72        29           1      0.000012    0.000002
  73        29           1      0.000011    0.000002
  74        29           1      0.000011    0.000002
  75        29           1      0.000011    0.000002
  76        29           1      0.000010    0.000001
  77        29           1      0.000010    0.000001
  78        29           1      0.000010    0.000001
  79        30           0      0.000010    0.000001    Roots Converged
 ---------------------------------------------------
   
**************************************************
 RAS-CI total energy for state   1:   -399.492610925749
  Excitation energy (eV) =  0.000000000000
  State symmetry: A'    (Cs       )
  <S^2>      :  2.0000
  Dipole Moment:   -0.3275 X     0.7439 Y     0.0000 Z
 NATURAL OCCUPATION NUMBERS (higher than 1.0E-05)
            1           2           3           4           5           6
    1   2.0000000   2.0000000   2.0000000   2.0000000   2.0000000   2.0000000
            7           8           9          10          11          12
    1   2.0000000   2.0000000   2.0000000   2.0000000   2.0000000   2.0000000
           13          14          15          16          17          18
    1   2.0000000   2.0000000   2.0000000   2.0000000   2.0000000   2.0000000
           19          20          21          22          23          24
    1   2.0000000   2.0000000   2.0000000   2.0000000   2.0000000   2.0000000
           25          26          27          28          29          30
    1   2.0000000   2.0000000   2.0000000   2.0000000   2.0000000   1.9656523
           31          32          33          34          35          36
    1   1.9511066   1.9136406   1.8886916   1.0622786   0.9424141   0.1173336
           37          38          39          40          41          42
    1   0.0890948   0.0317271   0.0219327   0.0024546   0.0023340   0.0017665
           43          44          45          46          47          48
    1   0.0015956   0.0012119   0.0011014   0.0010057   0.0009508   0.0007330
           49          50          51          52          53          54
    1   0.0006496   0.0004672   0.0003913   0.0003414   0.0003322   0.0001641
           55          56          57          58          59          60
    1   0.0001548   0.0001309   0.0000814   0.0000605   0.0000478   0.0000328
           61          62          63          64
    1   0.0000238   0.0000216   0.0000138   0.0000119
Natural Orbitals stored in FCHK

  Amplitudes : 
  
 | HOLE  | ALPHA    | BETA     | PART  |    AMPLITUDE 
--------------------------------------------------
 |       | 11111100 | 11110000 |       |     8.4441721352463E-01
 |       | 11111100 | 11011000 |       |     1.7588445234624E-01
 |       | 11111010 | 11110000 |       |     1.3594963094518E-01
 |       | 11111010 | 11011000 |       |     1.8357668452026E-01
 |       | 11111001 | 11011000 |       |     1.3214542858557E-01
--------------------------------------------------
*** Contributions RASCI wfn    Active:  91.09
                                 Hole:   0.00
                                 Part:   8.91

      Mulliken population analysis 
 ---------------------------------------------------
   Atom    Charge (a.u.)   Spin (a.u.)  
 ---------------------------------------------------
   1  C   -0.001253       -0.068849 
   2  C    0.302199       -0.054269 
   3  C   -0.152133        0.501430 
   4  C   -0.135814        0.141506 
   5  C   -0.075929        0.092299 
   6  C   -0.267901        0.536247 
   7  N   -0.288291        0.291168 
   8  C   -0.202017        0.350240 
   9  C   -0.094234        0.078521 
  10  C   -0.023157        0.121442 
  11  H    0.134428        0.001999 
  12  H    0.130687        0.000447 
  13  H    0.126895        0.000741 
  14  H    0.141893        0.002794 
  15  H    0.130950        0.000837 
  16  H    0.130930        0.000567 
  17  H    0.142746        0.002881 
 ---------------------------------------------------
   Sum:    0.000000        2.000000 
 ---------------------------------------------------
 
  
 NATURAL OCCUPATION NUMBERS (higher than 1.0E-05)
            1           2           3           4           5           6
    1   2.0000000   2.0000000   2.0000000   2.0000000   2.0000000   2.0000000
            7           8           9          10          11          12
    1   2.0000000   2.0000000   2.0000000   2.0000000   2.0000000   2.0000000
           13          14          15          16          17          18
    1   2.0000000   2.0000000   2.0000000   2.0000000   2.0000000   2.0000000
           19          20          21          22          23          24
    1   2.0000000   2.0000000   2.0000000   2.0000000   2.0000000   2.0000000
           25          26          27          28          29          30
    1   2.0000000   2.0000000   2.0000000   2.0000000   2.0000000   1.9656523
           31          32          33          34          35          36
    1   1.9511066   1.9136406   1.8886916   1.0622786   0.9424141   0.1173336
           37          38          39          40          41          42
    1   0.0890948   0.0317271   0.0219327   0.0024546   0.0023340   0.0017665
           43          44          45          46          47          48
    1   0.0015956   0.0012119   0.0011014   0.0010057   0.0009508   0.0007330
           49          50          51          52          53          54
    1   0.0006496   0.0004672   0.0003913   0.0003414   0.0003322   0.0001641
           55          56          57          58          59          60
    1   0.0001548   0.0001309   0.0000814   0.0000605   0.0000478   0.0000328
           61          62          63          64
    1   0.0000238   0.0000216   0.0000138   0.0000119
  
*** Unpaired Electrons
 Yamaguchi Nd:         3.06
 Head-Gordon Nu:       2.44
 Head-Gordon Nu_nl:    2.15
  
**************************************************
 RAS-CI total energy for state   2:   -399.426756364146
  Excitation energy (eV) =  1.791993795017
  State symmetry: A'    (Cs       )
  <S^2>      :  2.0000
  Dipole Moment:   -0.2193 X     0.6994 Y    -0.0000 Z
  Trans. Moment:   -0.0993 X    -0.0286 Y     0.0000 Z
  Strength   :  0.000469
  Natural transition orbitals ( 1 -> 2 ):
   e-/hole pair  1 alpha:  ampl =  0.597704 ( 35.7%)   [8 : 9]
   e-/hole pair  2 alpha:  ampl =  0.142476 (  2.0%)   [7 : 10]
   e-/hole pair  1 beta :  ampl =  0.609240 ( 37.1%)   [8 : 9]
   e-/hole pair  2 beta :  ampl =  0.143454 (  2.1%)   [7 : 10]
   Sum of square amplitudes: 0.80

 NATURAL OCCUPATION NUMBERS (higher than 1.0E-05)
            1           2           3           4           5           6
    1   2.0000000   2.0000000   2.0000000   2.0000000   2.0000000   2.0000000
            7           8           9          10          11          12
    1   2.0000000   2.0000000   2.0000000   2.0000000   2.0000000   2.0000000
           13          14          15          16          17          18
    1   2.0000000   2.0000000   2.0000000   2.0000000   2.0000000   2.0000000
           19          20          21          22          23          24
    1   2.0000000   2.0000000   2.0000000   2.0000000   2.0000000   2.0000000
           25          26          27          28          29          30
    1   2.0000000   2.0000000   2.0000000   2.0000000   2.0000000   1.9557165
           31          32          33          34          35          36
    1   1.9447867   1.9216992   1.5097295   1.3931847   0.6198584   0.4859131
           37          38          39          40          41          42
    1   0.0862241   0.0362665   0.0279695   0.0034482   0.0026846   0.0021234
           43          44          45          46          47          48
    1   0.0015166   0.0014076   0.0012507   0.0011413   0.0009833   0.0009054
           49          50          51          52          53          54
    1   0.0007235   0.0005734   0.0004044   0.0003401   0.0002921   0.0001529
           55          56          57          58          59          60
    1   0.0001468   0.0001388   0.0001161   0.0000928   0.0000437   0.0000323
           61          62          63          64
    1   0.0000276   0.0000196   0.0000189   0.0000118
Natural Orbitals stored in FCHK

  Amplitudes : 
  
 | HOLE  | ALPHA    | BETA     | PART  |    AMPLITUDE 
--------------------------------------------------
 |       | 11111100 | 11110000 |       |    -3.2875855691899E-01
 |       | 11111100 | 11101000 |       |     3.0301827238833E-01
 |       | 11111100 | 11011000 |       |     3.9155647770794E-01
 |       | 11111010 | 11110000 |       |     4.6112252138327E-01
 |       | 11111010 | 11101000 |       |     1.4013991934167E-01
 |       | 11111010 | 11011000 |       |     3.3222246563268E-01
 |       | 11111001 | 11110000 |       |     1.1015425374152E-01
 |       | 11111001 | 11011000 |       |     1.7930917470958E-01
--------------------------------------------------
*** Contributions RASCI wfn    Active:  87.80
                                 Hole:   0.00
                                 Part:  12.20

      Mulliken population analysis 
 ---------------------------------------------------
   Atom    Charge (a.u.)   Spin (a.u.)  
 ---------------------------------------------------
   1  C    0.015140        0.350762 
   2  C    0.275982       -0.050152 
   3  C   -0.183002        0.189756 
   4  C   -0.128608        0.083029 
   5  C   -0.061673        0.121141 
   6  C   -0.286737        0.397812 
   7  N   -0.269034        0.381443 
   8  C   -0.187821        0.321315 
   9  C   -0.101152        0.032121 
  10  C   -0.010887        0.164692 
  11  H    0.134096        0.002102 
  12  H    0.130712        0.000192 
  13  H    0.126835        0.001004 
  14  H    0.141612        0.001262 
  15  H    0.131098        0.000467 
  16  H    0.130919        0.000721 
  17  H    0.142522        0.002332 
 ---------------------------------------------------
   Sum:    0.000000        2.000000 
 ---------------------------------------------------
 
  
 NATURAL OCCUPATION NUMBERS (higher than 1.0E-05)
            1           2           3           4           5           6
    1   2.0000000   2.0000000   2.0000000   2.0000000   2.0000000   2.0000000
            7           8           9          10          11          12
    1   2.0000000   2.0000000   2.0000000   2.0000000   2.0000000   2.0000000
           13          14          15          16          17          18
    1   2.0000000   2.0000000   2.0000000   2.0000000   2.0000000   2.0000000
           19          20          21          22          23          24
    1   2.0000000   2.0000000   2.0000000   2.0000000   2.0000000   2.0000000
           25          26          27          28          29          30
    1   2.0000000   2.0000000   2.0000000   2.0000000   2.0000000   1.9557165
           31          32          33          34          35          36
    1   1.9447867   1.9216992   1.5097295   1.3931847   0.6198584   0.4859131
           37          38          39          40          41          42
    1   0.0862241   0.0362665   0.0279695   0.0034482   0.0026846   0.0021234
           43          44          45          46          47          48
    1   0.0015166   0.0014076   0.0012507   0.0011413   0.0009833   0.0009054
           49          50          51          52          53          54
    1   0.0007235   0.0005734   0.0004044   0.0003401   0.0002921   0.0001529
           55          56          57          58          59          60
    1   0.0001468   0.0001388   0.0001161   0.0000928   0.0000437   0.0000323
           61          62          63          64
    1   0.0000276   0.0000196   0.0000189   0.0000118
  
*** Unpaired Electrons
 Yamaguchi Nd:         3.85
 Head-Gordon Nu:       2.55
 Head-Gordon Nu_nl:    2.61
  
**************************************************
 RAS-CI total energy for state   3:   -399.424864568244
  Excitation energy (eV) =  1.843472180669
  State symmetry: A'    (Cs       )
  <S^2>      :  2.0000
  Dipole Moment:   -0.0060 X     0.7681 Y    -0.0000 Z
  Trans. Moment:   -0.0912 X     0.0493 Y     0.0000 Z
  Strength   :  0.000485
  Natural transition orbitals ( 1 -> 3 ):
   e-/hole pair  1 alpha:  ampl =  0.515623 ( 26.6%)   [8 : 9]
   e-/hole pair  2 alpha:  ampl =  0.124681 (  1.6%)   [7 : 10]
   e-/hole pair  1 beta :  ampl =  0.666760 ( 44.5%)   [8 : 9]
   e-/hole pair  2 beta :  ampl =  0.127285 (  1.6%)   [7 : 10]
   Sum of square amplitudes: 0.78

 NATURAL OCCUPATION NUMBERS (higher than 1.0E-05)
            1           2           3           4           5           6
    1   2.0000000   2.0000000   2.0000000   2.0000000   2.0000000   2.0000000
            7           8           9          10          11          12
    1   2.0000000   2.0000000   2.0000000   2.0000000   2.0000000   2.0000000
           13          14          15          16          17          18
    1   2.0000000   2.0000000   2.0000000   2.0000000   2.0000000   2.0000000
           19          20          21          22          23          24
    1   2.0000000   2.0000000   2.0000000   2.0000000   2.0000000   2.0000000
           25          26          27          28          29          30
    1   2.0000000   2.0000000   2.0000000   2.0000000   2.0000000   1.9555207
           31          32          33          34          35          36
    1   1.9263706   1.9158165   1.5498886   1.3680494   0.6913696   0.4064920
           37          38          39          40          41          42
    1   0.0937449   0.0489237   0.0242045   0.0030806   0.0028025   0.0024105
           43          44          45          46          47          48
    1   0.0017934   0.0013160   0.0012957   0.0012243   0.0010909   0.0010772
           49          50          51          52          53          54
    1   0.0008814   0.0006310   0.0004059   0.0003503   0.0003298   0.0001779
           55          56          57          58          59          60
    1   0.0001646   0.0001486   0.0001301   0.0000913   0.0000396   0.0000375
           61          62          63          64          65
    1   0.0000255   0.0000220   0.0000196   0.0000118   0.0000106
Natural Orbitals stored in FCHK

  Amplitudes : 
  
 | HOLE  | ALPHA    | BETA     | PART  |    AMPLITUDE 
--------------------------------------------------
 |       | 11111100 | 11110000 |       |     1.4734092447576E-01
 |       | 11111100 | 11101000 |       |     5.4409817510594E-01
 |       | 11111100 | 11011000 |       |    -2.1289834920433E-01
 |       | 11111100 | 10111000 |       |     1.3095841574001E-01
 |       | 11111010 | 11101000 |       |     1.9507578417130E-01
 |       | 11111010 | 11011000 |       |    -1.0786177998675E-01
 |       | 11111001 | 11110000 |       |    -4.3993137919265E-01
 |       | 11111001 | 11101000 |       |     1.4076913842977E-01
 |       | 11111001 | 11011000 |       |    -2.3858165929386E-01
 |       | 10111101 | 11110000 |       |     1.1193856358766E-01
 |       | 11111100 | 11100000 |  45   |     1.0811784387612E-01
--------------------------------------------------
*** Contributions RASCI wfn    Active:  85.11
                                 Hole:   0.00
                                 Part:  14.89

      Mulliken population analysis 
 ---------------------------------------------------
   Atom    Charge (a.u.)   Spin (a.u.)  
 ---------------------------------------------------
   1  C    0.009606       -0.047146 
   2  C    0.314141        0.312150 
   3  C   -0.185423        0.305209 
   4  C   -0.124846        0.220103 
   5  C   -0.050970        0.165830 
   6  C   -0.321377        0.137855 
   7  N   -0.310135        0.173937 
   8  C   -0.233926        0.317546 
   9  C   -0.041526        0.279465 
  10  C    0.006470        0.126014 
  11  H    0.134091        0.001985 
  12  H    0.130730        0.001526 
  13  H    0.127040        0.000749 
  14  H    0.141789        0.001730 
  15  H    0.130727        0.001335 
  16  H    0.130985        0.000973 
  17  H    0.142623        0.000737 
 ---------------------------------------------------
   Sum:    0.000000        2.000000 
 ---------------------------------------------------
 
  
 NATURAL OCCUPATION NUMBERS (higher than 1.0E-05)
            1           2           3           4           5           6
    1   2.0000000   2.0000000   2.0000000   2.0000000   2.0000000   2.0000000
            7           8           9          10          11          12
    1   2.0000000   2.0000000   2.0000000   2.0000000   2.0000000   2.0000000
           13          14          15          16          17          18
    1   2.0000000   2.0000000   2.0000000   2.0000000   2.0000000   2.0000000
           19          20          21          22          23          24
    1   2.0000000   2.0000000   2.0000000   2.0000000   2.0000000   2.0000000
           25          26          27          28          29          30
    1   2.0000000   2.0000000   2.0000000   2.0000000   2.0000000   1.9555207
           31          32          33          34          35          36
    1   1.9263706   1.9158165   1.5498886   1.3680494   0.6913696   0.4064920
           37          38          39          40          41          42
    1   0.0937449   0.0489237   0.0242045   0.0030806   0.0028025   0.0024105
           43          44          45          46          47          48
    1   0.0017934   0.0013160   0.0012957   0.0012243   0.0010909   0.0010772
           49          50          51          52          53          54
    1   0.0008814   0.0006310   0.0004059   0.0003503   0.0003298   0.0001779
           55          56          57          58          59          60
    1   0.0001646   0.0001486   0.0001301   0.0000913   0.0000396   0.0000375
           61          62          63          64          65
    1   0.0000255   0.0000220   0.0000196   0.0000118   0.0000106
  
*** Unpaired Electrons
 Yamaguchi Nd:         3.87
 Head-Gordon Nu:       2.57
 Head-Gordon Nu_nl:    2.57
  
**************************************************
 RAS-CI total energy for state   4:   -399.387525190464
  Excitation energy (eV) =  2.859528345368
  State symmetry: A'    (Cs       )
  <S^2>      :  2.0000
  Dipole Moment:   -0.1202 X     0.8138 Y    -0.0000 Z
  Trans. Moment:   -0.1822 X     0.0113 Y     0.0000 Z
  Strength   :  0.002335
  Natural transition orbitals ( 1 -> 4 ):
   e-/hole pair  1 alpha:  ampl =  0.217797 (  4.7%)   [8 : 9]
   e-/hole pair  2 alpha:  ampl =  0.087603 (  0.8%)   [7 : 10]
   e-/hole pair  1 beta :  ampl =  0.178738 (  3.2%)   [8 : 9]
   e-/hole pair  2 beta :  ampl =  0.090539 (  0.8%)   [7 : 10]
   Sum of square amplitudes: 0.11

 NATURAL OCCUPATION NUMBERS (higher than 1.0E-05)
            1           2           3           4           5           6
    1   2.0000000   2.0000000   2.0000000   2.0000000   2.0000000   2.0000000
            7           8           9          10          11          12
    1   2.0000000   2.0000000   2.0000000   2.0000000   2.0000000   2.0000000
           13          14          15          16          17          18
    1   2.0000000   2.0000000   2.0000000   2.0000000   2.0000000   2.0000000
           19          20          21          22          23          24
    1   2.0000000   2.0000000   2.0000000   2.0000000   2.0000000   2.0000000
           25          26          27          28          29          30
    1   2.0000000   2.0000000   2.0000000   2.0000000   2.0000000   1.9518651
           31          32          33          34          35          36
    1   1.9231375   1.8963278   1.8191562   1.0843113   0.9181199   0.1939679
           37          38          39          40          41          42
    1   0.0954633   0.0716429   0.0277245   0.0029751   0.0024718   0.0022635
           43          44          45          46          47          48
    1   0.0019924   0.0015457   0.0012355   0.0010282   0.0009482   0.0008531
           49          50          51          52          53          54
    1   0.0007075   0.0005594   0.0003647   0.0002572   0.0002383   0.0001969
           55          56          57          58          59          60
    1   0.0001337   0.0001228   0.0001130   0.0000734   0.0000400   0.0000320
           61          62          63          64
    1   0.0000233   0.0000210   0.0000196   0.0000151
Natural Orbitals stored in FCHK

  Amplitudes : 
  
 | HOLE  | ALPHA    | BETA     | PART  |    AMPLITUDE 
--------------------------------------------------
 |       | 11111100 | 11110000 |       |     1.1877000321615E-01
 |       | 11111100 | 11101000 |       |     1.1217240743089E-01
 |       | 11111010 | 11101000 |       |    -4.6353126771289E-01
 |       | 11111010 | 10101100 |       |    -1.2364637410147E-01
 |       | 11111001 | 11110000 |       |     1.6619860679927E-01
 |       | 11111001 | 11101000 |       |     6.1909922511130E-01
 |       | 11111001 | 10101100 |       |     1.5941807797565E-01
 |       | 11110101 | 11100100 |       |    -1.2307809317673E-01
 |       | 11110001 | 11101000 |  45   |    -1.2555716761834E-01
 |       | 11111000 | 10111000 |  45   |    -1.2832390492392E-01
--------------------------------------------------
*** Contributions RASCI wfn    Active:  81.71
                                 Hole:   0.00
                                 Part:  18.29

      Mulliken population analysis 
 ---------------------------------------------------
   Atom    Charge (a.u.)   Spin (a.u.)  
 ---------------------------------------------------
   1  C    0.017029        0.359714 
   2  C    0.295689        0.376536 
   3  C   -0.176613       -0.068550 
   4  C   -0.109084        0.358007 
   5  C   -0.100639        0.355419 
   6  C   -0.285022       -0.060693 
   7  N   -0.300464       -0.054557 
   8  C   -0.177249       -0.066468 
   9  C   -0.126305        0.416075 
  10  C    0.025430        0.376041 
  11  H    0.134851       -0.000346 
  12  H    0.129767        0.002716 
  13  H    0.126706        0.002324 
  14  H    0.142044       -0.000371 
  15  H    0.130699        0.002171 
  16  H    0.130203        0.002336 
  17  H    0.142958       -0.000355 
 ---------------------------------------------------
   Sum:    0.000000        2.000000 
 ---------------------------------------------------
 
  
 NATURAL OCCUPATION NUMBERS (higher than 1.0E-05)
            1           2           3           4           5           6
    1   2.0000000   2.0000000   2.0000000   2.0000000   2.0000000   2.0000000
            7           8           9          10          11          12
    1   2.0000000   2.0000000   2.0000000   2.0000000   2.0000000   2.0000000
           13          14          15          16          17          18
    1   2.0000000   2.0000000   2.0000000   2.0000000   2.0000000   2.0000000
           19          20          21          22          23          24
    1   2.0000000   2.0000000   2.0000000   2.0000000   2.0000000   2.0000000
           25          26          27          28          29          30
    1   2.0000000   2.0000000   2.0000000   2.0000000   2.0000000   1.9518651
           31          32          33          34          35          36
    1   1.9231375   1.8963278   1.8191562   1.0843113   0.9181199   0.1939679
           37          38          39          40          41          42
    1   0.0954633   0.0716429   0.0277245   0.0029751   0.0024718   0.0022635
           43          44          45          46          47          48
    1   0.0019924   0.0015457   0.0012355   0.0010282   0.0009482   0.0008531
           49          50          51          52          53          54
    1   0.0007075   0.0005594   0.0003647   0.0002572   0.0002383   0.0001969
           55          56          57          58          59          60
    1   0.0001337   0.0001228   0.0001130   0.0000734   0.0000400   0.0000320
           61          62          63          64
    1   0.0000233   0.0000210   0.0000196   0.0000151
  
*** Unpaired Electrons
 Yamaguchi Nd:         3.52
 Head-Gordon Nu:       2.65
 Head-Gordon Nu_nl:    2.33
  
**************************************************
 RAS-CI total energy for state   5:   -399.379818848367
  Excitation energy (eV) =  3.069228583054
  State symmetry: A'    (Cs       )
  <S^2>      :  2.0000
  Dipole Moment:   -0.1946 X     0.8197 Y    -0.0000 Z
  Trans. Moment:   -0.0778 X    -0.1501 Y    -0.0000 Z
  Strength   :  0.002149
  Natural transition orbitals ( 1 -> 5 ):
   e-/hole pair  1 alpha:  ampl =  0.612867 ( 37.6%)   [8 : 9]
   e-/hole pair  2 alpha:  ampl =  0.081391 (  0.7%)   [7 : 10]
   e-/hole pair  1 beta :  ampl =  0.471150 ( 22.2%)   [8 : 9]
   e-/hole pair  2 beta :  ampl =  0.093196 (  0.9%)   [7 : 10]
   Sum of square amplitudes: 0.62

 NATURAL OCCUPATION NUMBERS (higher than 1.0E-05)
            1           2           3           4           5           6
    1   2.0000000   2.0000000   2.0000000   2.0000000   2.0000000   2.0000000
            7           8           9          10          11          12
    1   2.0000000   2.0000000   2.0000000   2.0000000   2.0000000   2.0000000
           13          14          15          16          17          18
    1   2.0000000   2.0000000   2.0000000   2.0000000   2.0000000   2.0000000
           19          20          21          22          23          24
    1   2.0000000   2.0000000   2.0000000   2.0000000   2.0000000   2.0000000
           25          26          27          28          29          30
    1   2.0000000   2.0000000   2.0000000   2.0000000   2.0000000   1.9704140
           31          32          33          34          35          36
    1   1.9346658   1.9205040   1.5499818   1.3881642   0.5875663   0.4678374
           37          38          39          40          41          42
    1   0.1097339   0.0313893   0.0157939   0.0032942   0.0028335   0.0023395
           43          44          45          46          47          48
    1   0.0022960   0.0022397   0.0018943   0.0017811   0.0015233   0.0011136
           49          50          51          52          53          54
    1   0.0010609   0.0008690   0.0005728   0.0005021   0.0004133   0.0002530
           55          56          57          58          59          60
    1   0.0002261   0.0002068   0.0001762   0.0000936   0.0000543   0.0000447
           61          62          63          64
    1   0.0000351   0.0000265   0.0000203   0.0000159
Natural Orbitals stored in FCHK

  Amplitudes : 
  
 | HOLE  | ALPHA    | BETA     | PART  |    AMPLITUDE 
--------------------------------------------------
 |       | 11111100 | 11101000 |       |     3.1130357557391E-01
 |       | 11111100 | 10111000 |       |    -2.0398649618669E-01
 |       | 11111010 | 11110000 |       |    -3.5306804625467E-01
 |       | 11111010 | 11101000 |       |     4.2147914789542E-01
 |       | 11111001 | 11110000 |       |     4.9831959969662E-01
 |       | 11111001 | 11101000 |       |     1.8447328062456E-01
 |       | 10111101 | 11110000 |       |    -1.1515270069100E-01
 |       | 11111000 | 11110000 |  45   |    -1.4623135184983E-01
--------------------------------------------------
*** Contributions RASCI wfn    Active:  86.33
                                 Hole:   0.00
                                 Part:  13.67

      Mulliken population analysis 
 ---------------------------------------------------
   Atom    Charge (a.u.)   Spin (a.u.)  
 ---------------------------------------------------
   1  C   -0.002830        0.191779 
   2  C    0.292047        0.174138 
   3  C   -0.068180        0.223342 
   4  C   -0.199981        0.198279 
   5  C   -0.097459        0.213219 
   6  C   -0.194575        0.222156 
   7  N   -0.379391        0.132882 
   8  C   -0.257529        0.159332 
   9  C   -0.043621        0.235583 
  10  C    0.012961        0.240417 
  11  H    0.133993        0.001196 
  12  H    0.130847        0.001184 
  13  H    0.126879        0.001411 
  14  H    0.142752        0.000974 
  15  H    0.130125        0.001578 
  16  H    0.130424        0.001585 
  17  H    0.143537        0.000944 
 ---------------------------------------------------
   Sum:    0.000000        2.000000 
 ---------------------------------------------------
 
  
 NATURAL OCCUPATION NUMBERS (higher than 1.0E-05)
            1           2           3           4           5           6
    1   2.0000000   2.0000000   2.0000000   2.0000000   2.0000000   2.0000000
            7           8           9          10          11          12
    1   2.0000000   2.0000000   2.0000000   2.0000000   2.0000000   2.0000000
           13          14          15          16          17          18
    1   2.0000000   2.0000000   2.0000000   2.0000000   2.0000000   2.0000000
           19          20          21          22          23          24
    1   2.0000000   2.0000000   2.0000000   2.0000000   2.0000000   2.0000000
           25          26          27          28          29          30
    1   2.0000000   2.0000000   2.0000000   2.0000000   2.0000000   1.9704140
           31          32          33          34          35          36
    1   1.9346658   1.9205040   1.5499818   1.3881642   0.5875663   0.4678374
           37          38          39          40          41          42
    1   0.1097339   0.0313893   0.0157939   0.0032942   0.0028335   0.0023395
           43          44          45          46          47          48
    1   0.0022960   0.0022397   0.0018943   0.0017811   0.0015233   0.0011136
           49          50          51          52          53          54
    1   0.0010609   0.0008690   0.0005728   0.0005021   0.0004133   0.0002530
           55          56          57          58          59          60
    1   0.0002261   0.0002068   0.0001762   0.0000936   0.0000543   0.0000447
           61          62          63          64
    1   0.0000351   0.0000265   0.0000203   0.0000159
  
*** Unpaired Electrons
 Yamaguchi Nd:         3.78
 Head-Gordon Nu:       2.47
 Head-Gordon Nu_nl:    2.50
  
**************************************************
 RAS-CI total energy for state   6:   -399.366015292564
  Excitation energy (eV) =  3.444842447080
  State symmetry: A'    (Cs       )
  <S^2>      :  2.0000
  Dipole Moment:   -0.8389 X     0.7805 Y    -0.0000 Z
  Trans. Moment:    0.3128 X     0.3015 Y    -0.0000 Z
  Strength   :  0.015925
  Natural transition orbitals ( 1 -> 6 ):
   e-/hole pair  1 alpha:  ampl =  0.484676 ( 23.5%)   [8 : 9]
   e-/hole pair  2 alpha:  ampl =  0.118251 (  1.4%)   [7 : 10]
   e-/hole pair  1 beta :  ampl =  0.627640 ( 39.4%)   [8 : 9]
   e-/hole pair  2 beta :  ampl =  0.152699 (  2.3%)   [7 : 10]
   Sum of square amplitudes: 0.70

 NATURAL OCCUPATION NUMBERS (higher than 1.0E-05)
            1           2           3           4           5           6
    1   2.0000000   2.0000000   2.0000000   2.0000000   2.0000000   2.0000000
            7           8           9          10          11          12
    1   2.0000000   2.0000000   2.0000000   2.0000000   2.0000000   2.0000000
           13          14          15          16          17          18
    1   2.0000000   2.0000000   2.0000000   2.0000000   2.0000000   2.0000000
           19          20          21          22          23          24
    1   2.0000000   2.0000000   2.0000000   2.0000000   2.0000000   2.0000000
           25          26          27          28          29          30
    1   2.0000000   2.0000000   2.0000000   2.0000000   2.0000000   1.9622434
           31          32          33          34          35          36
    1   1.9019093   1.8161130   1.5406989   1.4513488   0.6614065   0.3907332
           37          38          39          40          41          42
    1   0.1568324   0.0748236   0.0217819   0.0034644   0.0027325   0.0023354
           43          44          45          46          47          48
    1   0.0021715   0.0016864   0.0016147   0.0014129   0.0013905   0.0011371
           49          50          51          52          53          54
    1   0.0009415   0.0007251   0.0004581   0.0004287   0.0003989   0.0003214
           55          56          57          58          59          60
    1   0.0002043   0.0001905   0.0001570   0.0000871   0.0000463   0.0000388
           61          62          63          64
    1   0.0000371   0.0000268   0.0000198   0.0000158
Natural Orbitals stored in FCHK

  Amplitudes : 
  
 | HOLE  | ALPHA    | BETA     | PART  |    AMPLITUDE 
--------------------------------------------------
 |       | 11111100 | 11101000 |       |     2.6295902223112E-01
 |       | 11111100 | 11011000 |       |     1.8695190576616E-01
 |       | 11111100 | 10111000 |       |     5.3091341785083E-01
 |       | 11111010 | 11110000 |       |    -2.9459489017688E-01
 |       | 11111010 | 11100100 |       |     1.1826236545958E-01
 |       | 11111010 | 10111000 |       |     1.0471953609336E-01
 |       | 11111001 | 11110000 |       |     1.3774808537321E-01
 |       | 11111001 | 11101000 |       |    -1.3382647910471E-01
 |       | 11111001 | 11011000 |       |     2.1538932459305E-01
 |       | 11101110 | 11110000 |       |    -1.2185671531065E-01
 |       | 11101101 | 11110000 |       |     1.1330719736280E-01
 |       | 11111000 | 11110000 |  45   |     2.4640207257811E-01
 |       | 11111000 | 11011000 |  45   |     1.0574782535445E-01
 |       | 11110100 | 10111000 |  45   |    -1.1977204618750E-01
 |       | 11111100 | 10110000 |  45   |     1.1896455864389E-01
--------------------------------------------------
*** Contributions RASCI wfn    Active:  76.49
                                 Hole:   0.00
                                 Part:  23.51

      Mulliken population analysis 
 ---------------------------------------------------
   Atom    Charge (a.u.)   Spin (a.u.)  
 ---------------------------------------------------
   1  C   -0.020034        0.049132 
   2  C    0.288290        0.022673 
   3  C   -0.218842        0.277094 
   4  C   -0.072907        0.268692 
   5  C    0.015143        0.302626 
   6  C   -0.322526        0.290061 
   7  N   -0.294539        0.147370 
   8  C   -0.161046        0.233907 
   9  C   -0.114951        0.173628 
  10  C   -0.035775        0.224720 
  11  H    0.134761        0.001233 
  12  H    0.130087        0.001268 
  13  H    0.126359        0.001653 
  14  H    0.141359        0.001767 
  15  H    0.131038        0.001234 
  16  H    0.131225        0.001343 
  17  H    0.142357        0.001598 
 ---------------------------------------------------
   Sum:    0.000000        2.000000 
 ---------------------------------------------------
 
  
 NATURAL OCCUPATION NUMBERS (higher than 1.0E-05)
            1           2           3           4           5           6
    1   2.0000000   2.0000000   2.0000000   2.0000000   2.0000000   2.0000000
            7           8           9          10          11          12
    1   2.0000000   2.0000000   2.0000000   2.0000000   2.0000000   2.0000000
           13          14          15          16          17          18
    1   2.0000000   2.0000000   2.0000000   2.0000000   2.0000000   2.0000000
           19          20          21          22          23          24
    1   2.0000000   2.0000000   2.0000000   2.0000000   2.0000000   2.0000000
           25          26          27          28          29          30
    1   2.0000000   2.0000000   2.0000000   2.0000000   2.0000000   1.9622434
           31          32          33          34          35          36
    1   1.9019093   1.8161130   1.5406989   1.4513488   0.6614065   0.3907332
           37          38          39          40          41          42
    1   0.1568324   0.0748236   0.0217819   0.0034644   0.0027325   0.0023354
           43          44          45          46          47          48
    1   0.0021715   0.0016864   0.0016147   0.0014129   0.0013905   0.0011371
           49          50          51          52          53          54
    1   0.0009415   0.0007251   0.0004581   0.0004287   0.0003989   0.0003214
           55          56          57          58          59          60
    1   0.0002043   0.0001905   0.0001570   0.0000871   0.0000463   0.0000388
           61          62          63          64
    1   0.0000371   0.0000268   0.0000198   0.0000158
  
*** Unpaired Electrons
 Yamaguchi Nd:         4.13
 Head-Gordon Nu:       2.66
 Head-Gordon Nu_nl:    2.57
  
**************************************************
 RAS-CI total energy for state   7:   -399.343538032239
  Excitation energy (eV) =  4.056479819668
  State symmetry: A'    (Cs       )
  <S^2>      :  2.0000
  Dipole Moment:   -0.6785 X     0.7743 Y    -0.0000 Z
  Trans. Moment:    0.7544 X     0.0579 Y    -0.0000 Z
  Strength   :  0.056886
  Natural transition orbitals ( 1 -> 7 ):
   e-/hole pair  1 alpha:  ampl =  0.434185 ( 18.9%)   [8 : 9]
   e-/hole pair  2 alpha:  ampl =  0.149279 (  2.2%)   [7 : 10]
   e-/hole pair  1 beta :  ampl =  0.384924 ( 14.8%)   [8 : 9]
   e-/hole pair  2 beta :  ampl =  0.253696 (  6.4%)   [7 : 10]
   Sum of square amplitudes: 0.44

 NATURAL OCCUPATION NUMBERS (higher than 1.0E-05)
            1           2           3           4           5           6
    1   2.0000000   2.0000000   2.0000000   2.0000000   2.0000000   2.0000000
            7           8           9          10          11          12
    1   2.0000000   2.0000000   2.0000000   2.0000000   2.0000000   2.0000000
           13          14          15          16          17          18
    1   2.0000000   2.0000000   2.0000000   2.0000000   2.0000000   2.0000000
           19          20          21          22          23          24
    1   2.0000000   2.0000000   2.0000000   2.0000000   2.0000000   2.0000000
           25          26          27          28          29          30
    1   2.0000000   2.0000000   2.0000000   2.0000000   2.0000000   1.9509174
           31          32          33          34          35          36
    1   1.9383455   1.7221037   1.6732580   1.2835979   0.7173842   0.4573995
           37          38          39          40          41          42
    1   0.1664619   0.0407531   0.0242683   0.0048270   0.0030409   0.0027238
           43          44          45          46          47          48
    1   0.0022280   0.0020842   0.0018455   0.0017360   0.0015746   0.0010330
           49          50          51          52          53          54
    1   0.0009831   0.0007324   0.0005287   0.0004990   0.0004250   0.0002564
           55          56          57          58          59          60
    1   0.0002234   0.0001872   0.0001635   0.0001425   0.0000522   0.0000444
           61          62          63          64
    1   0.0000399   0.0000316   0.0000214   0.0000153
Natural Orbitals stored in FCHK

  Amplitudes : 
  
 | HOLE  | ALPHA    | BETA     | PART  |    AMPLITUDE 
--------------------------------------------------
 |       | 11111100 | 11101000 |       |    -1.8873040426634E-01
 |       | 11111100 | 11100100 |       |     1.5722236110944E-01
 |       | 11111100 | 11100010 |       |     1.3828718358308E-01
 |       | 11111100 | 11011000 |       |     2.3732106141078E-01
 |       | 11111010 | 11110000 |       |    -3.0403125811871E-01
 |       | 11111010 | 11101000 |       |     1.7320540777622E-01
 |       | 11111010 | 11100100 |       |     1.5043274004465E-01
 |       | 11111010 | 11011000 |       |     3.9404819146896E-01
 |       | 11111001 | 11110000 |       |    -3.6102923497084E-01
 |       | 11111001 | 11101000 |       |     2.8182429833109E-01
 |       | 11110110 | 11101000 |       |    -1.5351271375210E-01
 |       | 11101110 | 11110000 |       |    -1.6565827021368E-01
--------------------------------------------------
*** Contributions RASCI wfn    Active:  87.25
                                 Hole:   0.00
                                 Part:  12.75

      Mulliken population analysis 
 ---------------------------------------------------
   Atom    Charge (a.u.)   Spin (a.u.)  
 ---------------------------------------------------
   1  C    0.062271        0.280628 
   2  C    0.293424        0.108366 
   3  C   -0.127988        0.403832 
   4  C   -0.182190        0.012675 
   5  C   -0.000722        0.168328 
   6  C   -0.268992        0.197351 
   7  N   -0.354781        0.252609 
   8  C   -0.265294        0.328925 
   9  C   -0.064647        0.097341 
  10  C   -0.028343        0.141414 
  11  H    0.133268        0.002486 
  12  H    0.130804        0.000530 
  13  H    0.126647        0.000971 
  14  H    0.141834        0.002351 
  15  H    0.130533        0.000231 
  16  H    0.131488        0.000827 
  17  H    0.142690        0.001134 
 ---------------------------------------------------
   Sum:    0.000000        2.000000 
 ---------------------------------------------------
 
  
[...]
 
 Alpha MOs, Restricted
 -- Doubly Occupied --           
-15.561 -11.285 -11.265 -11.255 -11.252 -11.250 -11.254 -11.246
  1 A'    2 A'    3 A'    4 A'    5 A'    6 A'    7 A'    8 A'                 
-11.251 -11.234  -1.251  -1.151  -1.092  -1.032  -1.016  -0.900
  9 A'   10 A'   11 A'   12 A'   13 A'   14 A'   15 A'   16 A'                 
 -0.849  -0.835  -0.736  -0.706  -0.690  -0.634  -0.627  -0.600
 17 A'   18 A'   19 A'   20 A'   21 A'   22 A'   23 A'   24 A'                 
 -0.577  -0.565  -0.530  -0.502  -0.417  -0.567  -0.482  -0.414
 25 A'   26 A'   27 A'   28 A'   29 A'    1 A"    2 A"    3 A"                 
 -0.365
  4 A"                                                                         
 -- Singly Occupied (Occupied) --
 -0.397  -0.240
  5 A"    6 A"                                                                 
 -- Virtual --                   
  0.108   0.113   0.152   0.163   0.174   0.189   0.197   0.204
  7 A"    8 A"   30 A'   31 A'   32 A'   33 A'   34 A'   35 A'                 
  0.213   0.207   0.230   0.266   0.288   0.295   0.300   0.311
 36 A'    9 A"   37 A'   38 A'   39 A'   10 A"   40 A'   41 A'                 
  0.321   0.328   0.349   0.351   0.360   0.376   0.375   0.397
 42 A'   11 A"   12 A"   43 A'   44 A'   45 A'   13 A"   14 A"                 
  0.405   0.421   0.420   0.442   0.456   0.453   0.459   0.475
 46 A'   47 A'   15 A"   48 A'   49 A'   16 A"   50 A'   51 A'                 
  0.490   0.500   0.503   0.504   0.525   0.533   0.557   0.561
 52 A'   53 A'   17 A"   18 A"   54 A'   55 A'   56 A'   57 A'                 
  0.574   0.574   0.581   0.581   0.604   0.619   0.626   0.636
 58 A'   19 A"   59 A'   60 A'   61 A'   62 A'   63 A'   20 A"                 
  0.642   0.652   0.669   0.684   0.692   0.706   0.716   0.733
 64 A'   65 A'   66 A'   21 A"   67 A'   68 A'   69 A'   22 A"                 
  0.746   0.778   0.791   0.827   0.844   0.845   0.860   0.857
 70 A'   71 A'   72 A'   73 A'   74 A'   75 A'   76 A'   23 A"                 
  0.865   0.875   0.893   0.904   0.916   0.921   0.948   0.965
 77 A'   78 A'   79 A'   24 A"   80 A'   25 A"   81 A'   26 A"                 
  0.980   0.991   1.005   1.019   1.035   1.062   1.088   1.086
 82 A'   83 A'   27 A"   84 A'   85 A'   86 A'   87 A'   28 A"                 
  1.098   1.123   1.152   1.171   1.199   1.196   1.231   1.238
 29 A"   88 A'   89 A'   90 A'   91 A'   30 A"   92 A'   31 A"                 
  1.294   1.325   1.335   1.344   1.365   1.387   1.412   1.425
 93 A'   32 A"   94 A'   33 A"   95 A'   96 A'   97 A'   34 A"                 
  1.431   1.445   1.445   1.465   1.497   1.509   1.529   1.533
 98 A'   99 A'   35 A"  100 A'  101 A'  102 A'   36 A"  103 A'                 
  1.555   1.577   1.612   1.628   1.669   1.679   1.706   1.700
 37 A"  104 A'  105 A'  106 A'   38 A"  107 A'  108 A'   39 A"                 
  1.718   1.733   1.752   1.763   1.766   1.797   1.812   1.824
109 A'  110 A'   40 A"  111 A'   41 A"  112 A'   42 A"  113 A'                 
  1.834   1.858   1.878   1.893   1.901   1.941   1.948   1.968
114 A'  115 A'   43 A"   44 A"  116 A'  117 A'   45 A"  118 A'                 
  1.979   1.987   2.011   2.015   2.030   2.059   2.072   2.093
 46 A"  119 A'   47 A"  120 A'   48 A"  121 A'  122 A'   49 A"                 
  2.125   2.148   2.209   2.212   2.233   2.260   2.264   2.287
 50 A"   51 A"  123 A'   52 A"  124 A'   53 A"  125 A'   54 A"                 
  2.303   2.338   2.343   2.396   2.426   2.437   2.448   2.454
126 A'  127 A'  128 A'  129 A'  130 A'  131 A'  132 A'   55 A"                 
  2.476   2.511   2.540   2.544   2.577   2.579   2.617   2.643
133 A'  134 A'  135 A'  136 A'   56 A"  137 A'  138 A'   57 A"                 
  2.668   2.721   2.740   2.757   2.792   2.797   2.816   2.838
139 A'  140 A'   58 A"  141 A'  142 A'   59 A"  143 A'  144 A'                 
  2.868   2.885   2.901   2.914   2.920   2.950   2.952   2.969
145 A'  146 A'  147 A'   60 A"  148 A'  149 A'   61 A"  150 A'                 
  2.973   2.979   3.005   3.023   3.038   3.047   3.052   3.071
 62 A"  151 A'   63 A"  152 A'  153 A'   64 A"  154 A'   65 A"                 
  3.080   3.102   3.113   3.132   3.130   3.162   3.165   3.176
155 A'  156 A'   66 A"  157 A'   67 A"  158 A'   68 A"  159 A'                 
  3.204   3.215   3.223   3.222   3.255   3.286   3.288   3.303
160 A'  161 A'  162 A'   69 A"   70 A"   71 A"  163 A'  164 A'                 
  3.324   3.329   3.362   3.365   3.398   3.402   3.417   3.418
165 A'   72 A"  166 A'   73 A"  167 A'   74 A"   75 A"  168 A'                 
  3.446   3.449   3.471   3.481   3.510   3.515   3.517   3.560
 76 A"  169 A'  170 A'   77 A"   78 A"  171 A'   79 A"  172 A'                 
  3.569   3.583   3.592   3.609   3.611   3.610   3.619   3.646
 80 A"  173 A'  174 A'  175 A'  176 A'   81 A"   82 A"  177 A'                 
  3.659   3.677   3.692   3.696   3.715   3.731   3.751   3.775
 83 A"  178 A'  179 A'   84 A"  180 A'   85 A"  181 A'  182 A'                 
  3.776   3.809   3.829   3.832   3.849   3.853   3.877   3.899
 86 A"  183 A'  184 A'   87 A"   88 A"  185 A'   89 A"  186 A'                 
  3.927   3.942   3.966   4.007   4.049   4.068   4.088   4.114
187 A'   90 A"  188 A'  189 A'  190 A'   91 A"  191 A'  192 A'                 
  4.162   4.164   4.187   4.200   4.221   4.266   4.300   4.319
193 A'   92 A"  194 A'   93 A"  195 A'  196 A'  197 A'  198 A'                 
  4.383   4.391   4.399   4.428   4.444   4.455   4.472   4.527
199 A'  200 A'   94 A"   95 A"  201 A'  202 A'   96 A"  203 A'                 
  4.543   4.549   4.554   4.586   4.593   4.629   4.652   4.670
204 A'   97 A"  205 A'  206 A'   98 A"  207 A'  208 A'   99 A"                 
  4.725   4.772   4.810   4.810   4.913   4.932   4.945   4.957
100 A"  209 A'  210 A'  101 A"  102 A"  211 A'  212 A'  213 A'                 
  5.033   5.056   5.117   5.148   5.184   5.236   5.263   5.300
103 A"  214 A'  215 A'  216 A'  217 A'  218 A'  219 A'  220 A'                 
  5.318   5.355   5.373   5.468   5.496   5.554   5.585   5.599
104 A"  105 A"  221 A'  222 A'  223 A'  224 A'  225 A'  106 A"                 
  5.638   5.702   5.711   5.812   5.831   5.925   6.042   6.164
226 A'  107 A"  227 A'  228 A'  229 A'  230 A'  231 A'  232 A'                 
  6.176   6.282   6.639  23.250  23.501  23.611  23.717  23.840
233 A'  234 A'  235 A'  236 A'  237 A'  238 A'  239 A'  240 A'                 
 23.905  23.919  24.023  24.517  33.848
241 A'  242 A'  243 A'  244 A'  245 A'                                         
 
 Beta MOs, Restricted
 -- Doubly Occupied --           
-15.561 -11.285 -11.265 -11.255 -11.252 -11.250 -11.254 -11.246
  1 A'    2 A'    3 A'    4 A'    5 A'    6 A'    7 A'    8 A'                 
-11.251 -11.234  -1.251  -1.151  -1.092  -1.032  -1.016  -0.900
  9 A'   10 A'   11 A'   12 A'   13 A'   14 A'   15 A'   16 A'                 
 -0.849  -0.835  -0.736  -0.706  -0.690  -0.634  -0.627  -0.600
 17 A'   18 A'   19 A'   20 A'   21 A'   22 A'   23 A'   24 A'                 
 -0.577  -0.565  -0.530  -0.502  -0.417  -0.567  -0.482  -0.414
 25 A'   26 A'   27 A'   28 A'   29 A'    1 A"    2 A"    3 A"                 
 -0.365
  4 A"                                                                         
 -- Singly Occupied (Vacant) --  
 -0.397  -0.240
  5 A"    6 A"                                                                 
 -- Virtual --                   
  0.108   0.113   0.152   0.163   0.174   0.189   0.197   0.204
  7 A"    8 A"   30 A'   31 A'   32 A'   33 A'   34 A'   35 A'                 
  0.213   0.207   0.230   0.266   0.288   0.295   0.300   0.311
 36 A'    9 A"   37 A'   38 A'   39 A'   10 A"   40 A'   41 A'                 
  0.321   0.328   0.349   0.351   0.360   0.376   0.375   0.397
 42 A'   11 A"   12 A"   43 A'   44 A'   45 A'   13 A"   14 A"                 
  0.405   0.421   0.420   0.442   0.456   0.453   0.459   0.475
 46 A'   47 A'   15 A"   48 A'   49 A'   16 A"   50 A'   51 A'                 
  0.490   0.500   0.503   0.504   0.525   0.533   0.557   0.561
 52 A'   53 A'   17 A"   18 A"   54 A'   55 A'   56 A'   57 A'                 
  0.574   0.574   0.581   0.581   0.604   0.619   0.626   0.636
 58 A'   19 A"   59 A'   60 A'   61 A'   62 A'   63 A'   20 A"                 
  0.642   0.652   0.669   0.684   0.692   0.706   0.716   0.733
 64 A'   65 A'   66 A'   21 A"   67 A'   68 A'   69 A'   22 A"                 
  0.746   0.778   0.791   0.827   0.844   0.845   0.860   0.857
 70 A'   71 A'   72 A'   73 A'   74 A'   75 A'   76 A'   23 A"                 
  0.865   0.875   0.893   0.904   0.916   0.921   0.948   0.965
 77 A'   78 A'   79 A'   24 A"   80 A'   25 A"   81 A'   26 A"                 
  0.980   0.991   1.005   1.019   1.035   1.062   1.088   1.086
 82 A'   83 A'   27 A"   84 A'   85 A'   86 A'   87 A'   28 A"                 
  1.098   1.123   1.152   1.171   1.199   1.196   1.231   1.238
 29 A"   88 A'   89 A'   90 A'   91 A'   30 A"   92 A'   31 A"                 
  1.294   1.325   1.335   1.344   1.365   1.387   1.412   1.425
 93 A'   32 A"   94 A'   33 A"   95 A'   96 A'   97 A'   34 A"                 
  1.431   1.445   1.445   1.465   1.497   1.509   1.529   1.533
 98 A'   99 A'   35 A"  100 A'  101 A'  102 A'   36 A"  103 A'                 
  1.555   1.577   1.612   1.628   1.669   1.679   1.706   1.700
 37 A"  104 A'  105 A'  106 A'   38 A"  107 A'  108 A'   39 A"                 
  1.718   1.733   1.752   1.763   1.766   1.797   1.812   1.824
109 A'  110 A'   40 A"  111 A'   41 A"  112 A'   42 A"  113 A'                 
  1.834   1.858   1.878   1.893   1.901   1.941   1.948   1.968
114 A'  115 A'   43 A"   44 A"  116 A'  117 A'   45 A"  118 A'                 
  1.979   1.987   2.011   2.015   2.030   2.059   2.072   2.093
 46 A"  119 A'   47 A"  120 A'   48 A"  121 A'  122 A'   49 A"                 
  2.125   2.148   2.209   2.212   2.233   2.260   2.264   2.287
 50 A"   51 A"  123 A'   52 A"  124 A'   53 A"  125 A'   54 A"                 
  2.303   2.338   2.343   2.396   2.426   2.437   2.448   2.454
126 A'  127 A'  128 A'  129 A'  130 A'  131 A'  132 A'   55 A"                 
  2.476   2.511   2.540   2.544   2.577   2.579   2.617   2.643
133 A'  134 A'  135 A'  136 A'   56 A"  137 A'  138 A'   57 A"                 
  2.668   2.721   2.740   2.757   2.792   2.797   2.816   2.838
139 A'  140 A'   58 A"  141 A'  142 A'   59 A"  143 A'  144 A'                 
  2.868   2.885   2.901   2.914   2.920   2.950   2.952   2.969
145 A'  146 A'  147 A'   60 A"  148 A'  149 A'   61 A"  150 A'                 
  2.973   2.979   3.005   3.023   3.038   3.047   3.052   3.071
 62 A"  151 A'   63 A"  152 A'  153 A'   64 A"  154 A'   65 A"                 
  3.080   3.102   3.113   3.132   3.130   3.162   3.165   3.176
155 A'  156 A'   66 A"  157 A'   67 A"  158 A'   68 A"  159 A'                 
  3.204   3.215   3.223   3.222   3.255   3.286   3.288   3.303
160 A'  161 A'  162 A'   69 A"   70 A"   71 A"  163 A'  164 A'                 
  3.324   3.329   3.362   3.365   3.398   3.402   3.417   3.418
165 A'   72 A"  166 A'   73 A"  167 A'   74 A"   75 A"  168 A'                 
  3.446   3.449   3.471   3.481   3.510   3.515   3.517   3.560
 76 A"  169 A'  170 A'   77 A"   78 A"  171 A'   79 A"  172 A'                 
  3.569   3.583   3.592   3.609   3.611   3.610   3.619   3.646
 80 A"  173 A'  174 A'  175 A'  176 A'   81 A"   82 A"  177 A'                 
  3.659   3.677   3.692   3.696   3.715   3.731   3.751   3.775
 83 A"  178 A'  179 A'   84 A"  180 A'   85 A"  181 A'  182 A'                 
  3.776   3.809   3.829   3.832   3.849   3.853   3.877   3.899
 86 A"  183 A'  184 A'   87 A"   88 A"  185 A'   89 A"  186 A'                 
  3.927   3.942   3.966   4.007   4.049   4.068   4.088   4.114
187 A'   90 A"  188 A'  189 A'  190 A'   91 A"  191 A'  192 A'                 
  4.162   4.164   4.187   4.200   4.221   4.266   4.300   4.319
193 A'   92 A"  194 A'   93 A"  195 A'  196 A'  197 A'  198 A'                 
  4.383   4.391   4.399   4.428   4.444   4.455   4.472   4.527
199 A'  200 A'   94 A"   95 A"  201 A'  202 A'   96 A"  203 A'                 
  4.543   4.549   4.554   4.586   4.593   4.629   4.652   4.670
204 A'   97 A"  205 A'  206 A'   98 A"  207 A'  208 A'   99 A"                 
  4.725   4.772   4.810   4.810   4.913   4.932   4.945   4.957
100 A"  209 A'  210 A'  101 A"  102 A"  211 A'  212 A'  213 A'                 
  5.033   5.056   5.117   5.148   5.184   5.236   5.263   5.300
103 A"  214 A'  215 A'  216 A'  217 A'  218 A'  219 A'  220 A'                 
  5.318   5.355   5.373   5.468   5.496   5.554   5.585   5.599
104 A"  105 A"  221 A'  222 A'  223 A'  224 A'  225 A'  106 A"                 
  5.638   5.702   5.711   5.812   5.831   5.925   6.042   6.164
226 A'  107 A"  227 A'  228 A'  229 A'  230 A'  231 A'  232 A'                 
  6.176   6.282   6.639  23.250  23.501  23.611  23.717  23.840
233 A'  234 A'  235 A'  236 A'  237 A'  238 A'  239 A'  240 A'                 
 23.905  23.919  24.023  24.517  33.848
241 A'  242 A'  243 A'  244 A'  245 A'                                         
 --------------------------------------------------------------
 
          Ground-State Mulliken Net Atomic Charges

     Atom                 Charge (a.u.)
  ----------------------------------------
      1 C                    -0.029935
      2 C                     0.342025
      3 C                    -0.127124
      4 C                    -0.146937
      5 C                    -0.095394
      6 C                    -0.238304
      7 N                    -0.352746
      8 C                    -0.170629
      9 C                    -0.131159
     10 C                     0.011574
     11 H                     0.134971
     12 H                     0.130503
     13 H                     0.127210
     14 H                     0.141617
     15 H                     0.130938
     16 H                     0.130819
     17 H                     0.142573
  ----------------------------------------
  Sum of atomic charges =     0.000000

  Do orbital-by-orbital Lowdin population analysis
 
 
 Partial Mulliken analysis unavailable for frozen orbitals
 
 -----------------------------------------------------------------
                    Cartesian Multipole Moments
 -----------------------------------------------------------------
    Charge (ESU x 10^10)
                 0.0000
    Dipole Moment (Debye)
         X       1.0015      Y      -2.0828      Z      -0.0000
       Tot       2.3111
    Quadrupole Moments (Debye-Ang)
        XX     -50.0813     XY       2.8344     YY     -55.2981
        XZ      -0.0000     YZ      -0.0000     ZZ     -63.5081
    Octopole Moments (Debye-Ang^2)
       XXX      -6.6194    XXY      -0.1654    XYY       8.1339
       YYY     -14.3141    XXZ      -0.0000    XYZ      -0.0000
       YYZ      -0.0000    XZZ      -0.9267    YZZ       1.7073
       ZZZ      -0.0000
    Hexadecapole Moments (Debye-Ang^3)
      XXXX   -1077.8959   XXXY      -6.7361   XXYY    -254.7494
      XYYY      19.8469   YYYY    -484.7221   XXXZ       0.0000
      XXYZ       0.0000   XYYZ       0.0000   YYYZ      -0.0000
      XXZZ    -242.8018   XYZZ      -1.6524   YYZZ    -105.5474
      XZZZ       0.0000   YZZZ      -0.0000   ZZZZ     -74.3673
 -----------------------------------------------------------------
 Mayer SCF Bond Order, atomic valence on the diagonal:

            1           2           3           4           5           6
    1   3.8863454   1.1691779   1.1197844   0.0148739  -0.0051711   0.0431857
    2   1.1691779   3.9045064  -0.0487406   0.0067568  -0.0446690   1.1765071
    3   1.1197844  -0.0487406   3.2079477   1.0170757   0.0578698  -0.0121233
    4   0.0148739   0.0067568   1.0170757   3.9681761   1.8761518   0.0703661
    5  -0.0051711  -0.0446690   0.0578698   1.8761518   3.8731522   1.0064839
    6   0.0431857   1.1765071  -0.0121233   0.0703661   1.0064839   3.3478221
    7  -0.0313862   1.5635436   0.0169874   0.0058369   0.0058901   0.0579759
    8   1.5349432   0.0007545   0.0562974   0.0025189   0.0122022   0.0105480
    9   0.0353964   0.0297919   0.0003411   0.0070583  -0.0027683   0.0277726
   10   0.0218967   0.0241785   0.0326598  -0.0044326   0.0100975  -0.0021988
   11  -0.0169565   0.0061108   0.0039423   0.0002712  -0.0001560   0.0008647
   12   0.0052890   0.0021685   0.0005583   0.0002030   0.0001555   0.0001953
   13  -0.0006407   0.0053329   0.0009924  -0.0002956   0.0004123   0.0002254
   14  -0.0186583   0.0065778   0.9748949  -0.0105452   0.0047887  -0.0002045
   15   0.0050642   0.0003540  -0.0204325   0.9816497  -0.0026339   0.0071159
   16  -0.0001395   0.0049630   0.0074772  -0.0041875   0.9825582  -0.0194160
   17   0.0096862   0.0016987   0.0003635   0.0048747  -0.0280594   0.9805238
            7           8           9          10          11          12
    1  -0.0313862   1.5349432   0.0353964   0.0218967  -0.0169565   0.0052890
    2   1.5635436   0.0007545   0.0297919   0.0241785   0.0061108   0.0021685
    3   0.0169874   0.0562974   0.0003411   0.0326598   0.0039423   0.0005583
    4   0.0058369   0.0025189   0.0070583  -0.0044326   0.0002712   0.0002030
    5   0.0058901   0.0122022  -0.0027683   0.0100975  -0.0001560   0.0001555
    6   0.0579759   0.0105480   0.0277726  -0.0021988   0.0008647   0.0001953
    7   2.9404809   0.0391378  -0.0241651   1.2846162   0.0005963   0.0062284
    8   0.0391378   3.9537154   1.2660236   0.0598745   0.9732199  -0.0167343
    9  -0.0241651   1.2660236   3.8630145   1.5838426  -0.0077386   0.9731586
   10   1.2846162   0.0598745   1.5838426   4.0085751   0.0046922  -0.0025608
   11   0.0005963   0.9732199  -0.0077386   0.0046922   0.9678468  -0.0000569
   12   0.0062284  -0.0167343   0.9731586  -0.0025608  -0.0000569   0.9689001
   13  -0.0073259   0.0071319  -0.0265534   0.9948851   0.0005525   0.0001444
   14   0.0004621   0.0061512  -0.0001625   0.0001553   0.0021687  -0.0000081
   15   0.0001292   0.0004212   0.0001734  -0.0000113   0.0000013   0.0000358
   16   0.0005697   0.0002225  -0.0000233   0.0002802  -0.0000075   0.0000089
   17   0.0213844   0.0010028   0.0008668   0.0005999   0.0003422   0.0001145
           13          14          15          16          17
    1  -0.0006407  -0.0186583   0.0050642  -0.0001395   0.0096862
    2   0.0053329   0.0065778   0.0003540   0.0049630   0.0016987
    3   0.0009924   0.9748949  -0.0204325   0.0074772   0.0003635
    4  -0.0002956  -0.0105452   0.9816497  -0.0041875   0.0048747
    5   0.0004123   0.0047887  -0.0026339   0.9825582  -0.0280594
    6   0.0002254  -0.0002045   0.0071159  -0.0194160   0.9805238
    7  -0.0073259   0.0004621   0.0001292   0.0005697   0.0213844
    8   0.0071319   0.0061512   0.0004212   0.0002225   0.0010028
    9  -0.0265534  -0.0001625   0.0001734  -0.0000233   0.0008668
   10   0.9948851   0.0001553  -0.0000113   0.0002802   0.0005999
   11   0.0005525   0.0021687   0.0000013  -0.0000075   0.0003422
   12   0.0001444  -0.0000081   0.0000358   0.0000089   0.0001145
   13   0.9750714   0.0000476   0.0000000   0.0000088   0.0001534
   14   0.0000476   0.9660948  -0.0002798   0.0007254  -0.0000185
   15   0.0000000  -0.0002798   0.9719366  -0.0001241   0.0004734
   16   0.0000088   0.0007254  -0.0001241   0.9724618  -0.0004541
   17   0.0001534  -0.0000185   0.0004734  -0.0004541   0.9935524


 Total job time:  542636.28s(wall), 417378.03s(cpu) 
 Mon Sep 18 12:12:26 2023

        *************************************************************
        *                                                           *
        *  Thank you very much for using Q-Chem.  Have a nice day.  *
        *                                                           *
        *************************************************************


