                  Welcome to Q-Chem
     A Quantum Leap Into The Future Of Chemistry


 Q-Chem 6.0 (devel), Q-Chem, Inc., Pleasanton, CA (2022)

 E. Epifanovsky,  A. T. B. Gilbert,  Xintian Feng,  Joonho Lee,  Yuezhi Mao,  
 N. Mardirossian,  P. Pokhilko,  A. White,  M. Wormit,  M. P. Coons,  
 A. L. Dempwolff,  Zhengting Gan,  D. Hait,  P. R. Horn,  L. D. Jacobson,  
 I. Kaliman,  J. Kussmann,  A. W. Lange,  Ka Un Lao,  D. S. Levine,  Jie Liu,  
 S. C. McKenzie,  A. F. Morrison,  K. Nanda,  F. Plasser,  D. R. Rehn,  
 M. L. Vidal,  Zhi-Qiang You,  Ying Zhu,  B. Alam,  B. Albrecht,  
 A. Aldossary,  E. Alguire,  J. H. Andersen,  V. Athavale,  D. Barton,  
 K. Begam,  A. Behn,  N. Bellonzi,  Y. A. Bernard,  E. J. Berquist,  
 H. Burton,  A. Carreras,  K. Carter-Fenk,  Romit Chakraborty,  
 Chandrima Chakravarty,  Junhan Chen,  A. D. Chien,  K. D. Closser,  
 V. Cofer-Shabica,  L. Cunha,  S. Dasgupta,  Jia Deng,  M. de Wergifosse,  
 M. Diedenhofen,  Hainam Do,  S. Ehlert,  Po-Tung Fang,  S. Fatehi,  
 Qingguo Feng,  T. Friedhoff,  B. Ganoe,  J. Gayvert,  Qinghui Ge,  
 G. Gidofalvi,  M. Goldey,  J. Gomes,  C. Gonzalez-Espinoza,  S. Gulania,  
 A. Gunina,  J. A. Gyamfi,  M. W. D. Hanson-Heine,  P. H. P. Harbach,  
 A. W. Hauser,  M. F. Herbst,  M. Hernandez Vera,  M. Hodecker,  
 Z. C. Holden,  S. Houck,  Xunkun Huang,  Kerwin Hui,  B. C. Huynh,  
 K. Ikeda,  M. Ivanov,  Hyunjun Ji,  Zuxin Jin,  Hanjie Jiang,  B. Kaduk,  
 S. Kaehler,  R. Kang,  K. Khistyaev,  Jaehoon Kim,  Yongbin Kim,  
 P. Klunzinger,  Z. Koczor-Benda,  Joong Hoon Koh,  D. Kosenkov,  
 Saikiran Kotaru,  L. Koulias,  T. Kowalczyk,  C. M. Krauter,  K. Kue,  
 A. Kunitsa,  T. Kus,  A. Landau,  K. V. Lawler,  D. Lefrancois,  S. Lehtola,  
 Rain Li,  Shaozhi Li,  Yi-Pei Li,  Jiashu Liang,  M. Liebenthal,  
 Hung-Hsuan Lin,  You-Sheng Lin,  Fenglai Liu,  Kuan-Yu Liu,  
 M. Loipersberger,  A. Luenser,  C. Malbon,  A. Manjanath,  P. Manohar,  
 E. Mansoor,  S. F. Manzer,  Shan-Ping Mao,  A. V. Marenich,  T. Markovich,  
 S. Mason,  F. Matz,  S. A. Maurer,  P. F. McLaughlin,  M. F. S. J. Menger,  
 J.-M. Mewes,  S. A. Mewes,  P. Morgante,  Mohammad Mostafanejad,  
 J. W. Mullinax,  K. J. Oosterbaan,  G. Paran,  V. Parravicini,  
 Alexander C. Paul,  Suranjan K. Paul,  F. Pavosevic,  Zheng Pei,  S. Prager,  
 E. I. Proynov,  E. Ramos,  B. Rana,  A. E. Rask,  A. Rettig,  R. M. Richard,  
 F. Rob,  E. Rossomme,  T. Scheele,  M. Scheurer,  M. Schneider,  
 P. E. Schneider,  N. Sergueev,  S. M. Sharada,  Hengyuan Shen,  
 W. Skomorowski,  D. W. Small,  C. J. Stein,  Yingli Su,  Yu-Chuan Su,  
 E. J. Sundstrom,  Zhen Tao,  J. Thirman,  Hung-Yi Tsai,  T. Tsuchimochi,  
 N. M. Tubman,  C. Utku,  S. P. Veccham,  O. Vydrov,  J. Wenzel,  
 Jonathan Wong,  J. Witte,  A. Yamada,  Chou-Hsun Yang,  Kun Yao,  
 S. Yeganeh,  S. R. Yost,  A. Zech,  F. Zeller,  Igor Ying Zhang,  
 Xing Zhang,  Yu Zhang,  D. Zuev,  A. Aspuru-Guzik,  A. T. Bell,  
 N. A. Besley,  K. B. Bravaya,  B. R. Brooks,  D. Casanova,  Jeng-Da Chai,  
 Hsing-Ta Chen,  S. Coriani,  C. J. Cramer,  A. E. DePrince, III,  
 R. A. DiStasio Jr.,  A. Dreuw,  B. D. Dunietz,  T. R. Furlani,  
 W. A. Goddard III,  S. Grimme,  S. Hammes-Schiffer,  T. Head-Gordon,  
 W. J. Hehre,  Chao-Ping Hsu,  T.-C. Jagau,  Yousung Jung,  A. Klamt,  
 Jing Kong,  D. S. Lambrecht,  Xiangyuan Li,  WanZhen Liang,  N. J. Mayhall,  
 C. W. McCurdy,  J. B. Neaton,  T. Neudecker,  C. Ochsenfeld,  
 J. A. Parkhill,  R. Peverati,  V. A. Rassolov,  Haisheng Ren,  Yihan Shao,  
 L. V. Slipchenko,  R. P. Steele,  J. E. Subotnik,  A. J. W. Thom,  
 A. Tkatchenko,  D. G. Truhlar,  T. Van Voorhis,  Fan Wang,  
 T. A. Wesolowski,  K. B. Whaley,  H. L. Woodcock III,  P. M. Zimmerman,  
 S. Faraji,  P. M. W. Gill,  M. Head-Gordon,  J. M. Herbert,  A. I. Krylov

 Contributors to earlier versions of Q-Chem not listed above: 
 R. D. Adamson,  B. Austin,  R. Baer,  J. Baker,  G. J. O. Beran,  
 K. Brandhorst,  S. T. Brown,  E. F. C. Byrd,  Arup K. Chakraborty,  
 G. K. L. Chan,  Chun-Min Chang,  Yunqing Chen,  C.-L. Cheng,  
 Siu Hung Chien,  D. M. Chipman,  D. L. Crittenden,  H. Dachsel,  
 R. J. Doerksen,  A. D. Dutoi,  R. G. Edgar,  J. Fosso-Tande,  
 L. Fusti-Molnar,  D. Ghosh,  A. Ghysels,  A. Golubeva-Zadorozhnaya,  
 J. Gonthier,  M. S. Gordon,  S. R. Gwaltney,  G. Hawkins,  J. E. Herr,  
 A. Heyden,  S. Hirata,  E. G. Hohenstein,  G. Kedziora,  F. J. Keil,  
 C. Kelley,  Jihan Kim,  R. A. King,  R. Z. Khaliullin,  P. P. Korambath,  
 W. Kurlancheek,  A. Laurent,  A. M. Lee,  M. S. Lee,  S. V. Levchenko,  
 Ching Yeh Lin,  D. Liotard,  E. Livshits,  R. C. Lochan,  I. Lotan,  
 L. A. Martinez-Martinez,  P. E. Maslen,  N. Nair,  D. P. O'Neill,  
 D. Neuhauser,  E. Neuscamman,  C. M. Oana,  R. Olivares-Amaya,  R. Olson,  
 T. M. Perrine,  B. Peters,  P. A. Pieniazek,  A. Prociuk,  Y. M. Rhee,  
 J. Ritchie,  M. A. Rohrdanz,  E. Rosta,  N. J. Russ,  H. F. Schaefer III,  
 M. W. Schmidt,  N. E. Schultz,  S. Sharma,  N. Shenvi,  C. D. Sherrill,  
 A. C. Simmonett,  A. Sodt,  T. Stein,  D. Stuck,  K. S. Thanthiriwatte,  
 V. Vanovschi,  L. Vogt,  Tao Wang,  A. Warshel,  M. A. Watson,  
 C. F. Williams,  Q. Wu,  X. Xu,  Jun Yang,  W. Zhang,  Yan Zhao

   Please cite Q-Chem as follows:
  "Software for the frontiers of quantum chemistry:
   An overview of developments in the Q-Chem 5 package"
   J. Chem. Phys. 155, 084801 (2021)
   https://doi.org/10.1063/5.0055522 (open access)

 Q-Chem 6.0.1 for Intel X86 EM64T Linux

 Parts of Q-Chem use Armadillo 9.900.5 (Nocturnal Misbehaviour).
 http://arma.sourceforge.net/

 Q-Chem begins on Fri Sep 22 17:43:12 2023  

 Host: atlas-124
0

     Scratch files written to ./qchem164894//
 Processing $rem in /scratch/abel/SOFTWARE/qchem/config/preferences:
 Processing $rem in /dipc/acebg/.qchemrc:

 Checking the input file for inconsistencies... 	...done.

--------------------------------------------------------------
User input:
--------------------------------------------------------------
$comment
 RAS-SF CALCULATION
$end

$molecule
 READ quinoline.molecule
$end

$rem
!**CALCULATION TYPE***     
JOBTYPE            sp    
EXCHANGE           HF
CORRELATION        RASCI    !RASCI=Casanova; RASCI2=Zimmerman
BASIS              def2-TZVP

!***SCF REFERENCE***
INPUT_BOHR          TRUE
!SKIP_SCFMAN        FALSE
UNRESTRICTED       FALSE
!SCF_GUESS          core
!SCF_GUESS_MIX      FALSE
!SCF_GUESS_ALWAYS   FALSE
MAX_SCF_CYCLES     999
!SCF_CONVERGENCE    8
SCF_ALGORITHM      DIIS_GDM !DIIS,DM,DIIS_DM,GDM,DIIS_GDM,GD

!SYMMETRY           TRUE   !use of symmetry for calculating integrals
!SYM_IGNORE         FALSE  !turn off using symmetry
!SYM_TOL            5      !tolerance for determining point group
!USE_ABELIAN_SUBGROUP      !define to use abelian group

!THRESH             14
SCF_FINAL_PRINT     1 !0,1,2,3

!****RAS-SF****
RAS_ROOTS          30       !number of RAS-CI roots to be computed
SET_ITER           150     !number of iterations in RASCI
RAS_ELEC           10       !number of electrons in RAS2
!RAS_ELEC_ALPHA     6       !spin-α electrons in RAS2 
!RAS_ELEC_BETA      4       !spin-β electrons in RAS2

RAS_ACT            8       !number of orbitals in RAS2 
RAS_ACT_ORB  [27,30,32,33,34,35,36,37]  !user-selected RAS2 orbitals
RAS_OCC            29       !number of orbitals in RAS1
N_FROZEN_CORE      FC     !Number of frozen core orbitals
N_FROZEN_VIRTUAL   0      !Number of frozen virtual orbitals

RAS_DO_HOLE        TRUE   !presence of hole excitations in RAS-CI wave function
RAS_DO_PART        TRUE   !presence of particle excitations
!RAS_AMPL_PRINT     10     !threshold (×10 2 ) for the CI amplitudes

!RAS_GUESS_CS       0      !number of closed shell guess conﬁgurations
RAS_SPIN_MULT      0      !spin multiplicity. Only for Ms = 0 
!RAS_SRDFT          FALSE  !short-range density functional RAS-CI
!RAS_NFRAG          0     !fragments of excitation analysis in RASCI

RAS_PRINT          2      !level of information
RAS_NATORB         TRUE   !computation of the natural orbital occupancies
!RAS_NATORB_STATE  0      !Saves NO of i RAS computed state in .fchk ﬁle
!RAS_FOD            TRUE

!****RAS-SOC****
CALC_SOC           TRUE   !calculate SOC for EOM-CC, RAS-CI, ADC, TDDFT/TDA and TDDFT
!RAS_SOC_2E        TRUE   !two-electron mean-ﬁeld contribution, default=true
RAS_SOC_SYM_DENS   TRUE   !averaging of α and β densities

!****MEMORY****
MEM_TOTAL          60000 !Default 2000 MB
MEM_STATIC         10000  !Default 64 MB

!**Molecular Properties and Analysis **                                                                                          
POP_MULLIKEN       TRUE   !Run Mulliken population analysis
LOWDIN_POPULATION  TRUE   !Run Löwdin population analysis
GUI                2       !Checkpoints generation
STATE_ANALYSIS     TRUE

!**Wave function analysis of RAS-CI states: MOLDEN**
!PLOTS = 0     ! Note: This can be omitted, default is 0
!NTO_PAIRS = 2 ! Note: This can be omitted, default is 2
!GUI 0
!MOLDEN_FORMAT      TRUE
!PRINT_ORBITALS     15

!**Wave function analysis of RAS-CI state: CUBE**
!NTO_PAIRS = 2 ! Note: This can be omitted, default is 2
!PLOTS = 1
!GUI 0

!**SR-DFT**
!RAS_SRDFT           TRUE !Perform short-range density functional RAS-CI
!RAS_SRDFT_EXC       0 !EX functional. 0=HF. 
!RAS_SRDFT_ONLY_COR  TRUE !No use of EXC functional
!RAS_SRDFT_COR       srPBE !short-range correlation functional
!ras_srdft_0         TRUE !true: no iteration (one-shot); false: iteration
!RAS_OMEGA           400 !Coulomb range-separation parameter. def=400
!RAS_SRDFT_DAMP     0.5 !dumping factor. def=0.5
$end

!$plots
!   grid_points 100 100 100
!   grid_range  (-10,10) (-10,10) (-10,10)
!$end

--------------------------------------------------------------
 ----------------------------------------------------------------
             Standard Nuclear Orientation (Bohr)
    I     Atom           X                Y                Z
 ----------------------------------------------------------------
    1      C      -0.0559353627    -1.3989916065    -0.0000000000
    2      C      -0.0782415914     1.3256554364     0.0000000000
    3      C       2.3016375305    -2.6538713366    -0.0000000000
    4      C       4.6667611846    -1.2654684416    -0.0000000000
    5      C       4.6497706855     1.3016649328    -0.0000000000
    6      C       2.2722800840     2.6377967747    -0.0000000000
    7      N      -2.2102262665     2.6945577754     0.0000000000
    8      C      -2.3995793248    -2.6420616021     0.0000000000
    9      C      -4.6640560358    -1.1648929097     0.0000000000
   10      C      -4.4878393265     1.4051065478     0.0000000000
   11      H      -2.4867924844    -4.6867516752     0.0000000000
   12      H      -6.4947443947    -2.0790860337     0.0000000000
   13      H      -6.1538984074     2.5944746854     0.0000000000
   14      H       2.3432526882    -4.7016054474    -0.0000000000
   15      H       6.4266657394    -2.3097175760    -0.0000000000
   16      H       6.3951035242     2.3693643728    -0.0000000000
   17      H       2.2132101396     4.6817904753    -0.0000000000
 ----------------------------------------------------------------
 Molecular Point Group                 Cs    NOp =  2
 Largest Abelian Subgroup              Cs    NOp =  2
 Nuclear Repulsion Energy =         458.56962217 hartrees
 There are       35 alpha and       33 beta electrons
 Requested basis set is def2-TZVP
 There are 138 shells and 352 basis functions

 Q-Chem warning in module libmdc/get_mega.C, line 167:

 Allowed MEM_STATIC has been capped at MEM_STATIC=8191.
 Reduce the value of MEM_STATIC to silence this warning.


 Total QAlloc Memory Limit  60000 MB
 Mega-Array Size      8007 MB
 MEM_STATIC part      8191 MB

 A cutoff of  1.0D-09 yielded   8146 shell pairs
 There are     53734 function pairs (     69986 Cartesian)
 Smallest overlap matrix eigenvalue = 8.95E-06

 Q-Chem warning in module stvman/mkSTV.C, line 313:

 Overlap eigenvalue is smaller than square root of threshold
 Use THRESH >= 12 to get rid of this warning


 Scale SEOQF with 1.000000e-01/1.000000e-01/1.000000e+00

 Standard Electronic Orientation quadrupole field applied
 Nucleus-field energy     =     0.0000000148 hartrees
 Guess from superposition of atomic densities
 Warning:  Energy on first SCF cycle will be non-variational
 SAD guess density has 68.000000 electrons

 -----------------------------------------------------------------------
  General SCF calculation program by
  Eric Jon Sundstrom, Paul Horn, Yuezhi Mao, Dmitri Zuev, Alec White,
  David Stuck, Shaama M.S., Shane Yost, Joonho Lee, David Small,
  Daniel Levine, Susi Lehtola, Hugh Burton, Evgeny Epifanovsky,
  Bang C. Huynh
 -----------------------------------------------------------------------
 Hartree-Fock
 Orthonormalizing orbitals
 A restricted open-shell SCF calculation will be
 performed using DIIS, GDM
 SCF converges when RMS gradient is below 1.0e-05
 ---------------------------------------
  Cycle       Energy         DIIS error
 ---------------------------------------
    1    -396.5781026976      3.09e-02  
    2    -396.3847307891      2.99e-02  
    3    -398.7075159200      1.34e-02  
    4    -399.3027653795      3.98e-03  Done DIIS. Switching to GDM
 ---------------------------------------
  Cycle       Energy        RMS Gradient
 ---------------------------------------
    1    -399.3027653795      6.61e-02   Descent step
    2    -399.3553090883      7.64e-02   Normal BFGS step
    3    -399.3739134794      3.45e-02   Normal BFGS step
    4    -399.3786522039      2.82e-02   Normal BFGS step
    5    -399.3809969457      1.99e-02   Normal BFGS step
    6    -399.3819969647      8.37e-03   Normal BFGS step
    7    -399.3825111903      3.88e-03   Normal BFGS step
    8    -399.3826271659      1.64e-03   Normal BFGS step
    9    -399.3826550282      8.36e-04   Normal BFGS step
   10    -399.3826582381      4.26e-04   Normal BFGS step
   11    -399.3826591830      9.07e-05   Normal BFGS step
   12    -399.3826593418      3.73e-05   Normal BFGS step
   13    -399.3826595607      1.61e-05   Normal BFGS step
   14    -399.3826603106      5.45e-06  Convergence criterion met
The disked orbital energies are calculated using alpha and beta Focks
 ---------------------------------------
 Alpha HF Exchange    Energy = -28.34882502428649
 Beta HF Exchange     Energy = -27.46542182525537
 Nuclear Attraction   Energy =   0.00000000000000
 One-Electron (alpha) Energy = -740.48648922337713
 One-Electron (beta)  Energy = -708.47447590732099
 Total Coulomb        Energy = 646.82292948821578
 Final Alpha MO Eigenvalues
            1           2           3           4           5           6
    1 -15.5611834 -11.2853516 -11.2645624 -11.2554244 -11.2515203 -11.2503320
            7           8           9          10          11          12
    1 -11.2541942 -11.2458872 -11.2510193 -11.2343973  -1.2510311  -1.1509689
           13          14          15          16          17          18
    1  -1.0915886  -1.0324038  -1.0155447  -0.9002035  -0.8494516  -0.8347890
           19          20          21          22          23          24
    1  -0.7356495  -0.7062449  -0.6902562  -0.6343977  -0.6268214  -0.5995643
           25          26          27          28          29          30
    1  -0.5768235  -0.5654221  -0.5666910  -0.5304633  -0.5023272  -0.4815402
           31          32          33          34          35          36
    1  -0.4172263  -0.4143652  -0.3646019  -0.3965469  -0.2399094   0.1080848
           37          38          39          40          41          42
    1   0.1127423   0.1517373   0.1630754   0.1739667   0.1887824   0.1965509
           43          44          45          46          47          48
    1   0.2042991   0.2128497   0.2074366   0.2301130   0.2660015   0.2877991
           49          50          51          52          53          54
    1   0.2948296   0.2996666   0.3111620   0.3212232   0.3281754   0.3492084
           55          56          57          58          59          60
    1   0.3512223   0.3595298   0.3763348   0.3748516   0.3966300   0.4046489
           61          62          63          64          65          66
    1   0.4211100   0.4197454   0.4420070   0.4557197   0.4529847   0.4588384
           67          68          69          70          71          72
    1   0.4752832   0.4900547   0.5001617   0.5034621   0.5035662   0.5252772
           73          74          75          76          77          78
    1   0.5332578   0.5571661   0.5614610   0.5741262   0.5740879   0.5812648
           79          80          81          82          83          84
    1   0.5807579   0.6038738   0.6192971   0.6264880   0.6361400   0.6424815
           85          86          87          88          89          90
    1   0.6521836   0.6685195   0.6838264   0.6915699   0.7061325   0.7157265
           91          92          93          94          95          96
    1   0.7330100   0.7463197   0.7780087   0.7910118   0.8274056   0.8443219
           97          98          99         100         101         102
    1   0.8453375   0.8595672   0.8572325   0.8645900   0.8747816   0.8933362
          103         104         105         106         107         108
    1   0.9036217   0.9157941   0.9213902   0.9483700   0.9652206   0.9801817
          109         110         111         112         113         114
    1   0.9906518   1.0045779   1.0194519   1.0349300   1.0621632   1.0881638
          115         116         117         118         119         120
    1   1.0861637   1.0979345   1.1233334   1.1521257   1.1707550   1.1987825
          121         122         123         124         125         126
    1   1.1961244   1.2311612   1.2383189   1.2944284   1.3252023   1.3354176
          127         128         129         130         131         132
    1   1.3437359   1.3647710   1.3873197   1.4121260   1.4251554   1.4311305
          133         134         135         136         137         138
    1   1.4454212   1.4454105   1.4646703   1.4970713   1.5091006   1.5291107
          139         140         141         142         143         144
    1   1.5326862   1.5550125   1.5774416   1.6119517   1.6284402   1.6692346
          145         146         147         148         149         150
    1   1.6789877   1.7057541   1.7001174   1.7178701   1.7327420   1.7523375
          151         152         153         154         155         156
    1   1.7630870   1.7657028   1.7966317   1.8121035   1.8235405   1.8339022
          157         158         159         160         161         162
    1   1.8580602   1.8779048   1.8931307   1.9007806   1.9412518   1.9483927
          163         164         165         166         167         168
    1   1.9679229   1.9789855   1.9874348   2.0113616   2.0146892   2.0301372
          169         170         171         172         173         174
    1   2.0589441   2.0720457   2.0925704   2.1247325   2.1483423   2.2093406
          175         176         177         178         179         180
    1   2.2118404   2.2326413   2.2596569   2.2635219   2.2870119   2.3025373
          181         182         183         184         185         186
    1   2.3378713   2.3429665   2.3958118   2.4257500   2.4366160   2.4478182
          187         188         189         190         191         192
    1   2.4538372   2.4759033   2.5111663   2.5395493   2.5435905   2.5771510
          193         194         195         196         197         198
    1   2.5792450   2.6168396   2.6427945   2.6683250   2.7208411   2.7403833
          199         200         201         202         203         204
    1   2.7567885   2.7916187   2.7965387   2.8161608   2.8381603   2.8680111
          205         206         207         208         209         210
    1   2.8852459   2.9013033   2.9142113   2.9202802   2.9498901   2.9519732
          211         212         213         214         215         216
    1   2.9688171   2.9727777   2.9790249   3.0045128   3.0229362   3.0377234
          217         218         219         220         221         222
    1   3.0469628   3.0517185   3.0713578   3.0800190   3.1015924   3.1126206
          223         224         225         226         227         228
    1   3.1316723   3.1302064   3.1619054   3.1652836   3.1761993   3.2038021
          229         230         231         232         233         234
    1   3.2154438   3.2228287   3.2222635   3.2553575   3.2863370   3.2882410
          235         236         237         238         239         240
    1   3.3034381   3.3241202   3.3287002   3.3618896   3.3651725   3.3984416
          241         242         243         244         245         246
    1   3.4020413   3.4174664   3.4182486   3.4460567   3.4494309   3.4709636
          247         248         249         250         251         252
    1   3.4812450   3.5096595   3.5152707   3.5171748   3.5599242   3.5685115
          253         254         255         256         257         258
    1   3.5833988   3.5922844   3.6092747   3.6108160   3.6097388   3.6191895
          259         260         261         262         263         264
    1   3.6457922   3.6588363   3.6770104   3.6922284   3.6959953   3.7152729
          265         266         267         268         269         270
    1   3.7314427   3.7506305   3.7754061   3.7755744   3.8087873   3.8288810
          271         272         273         274         275         276
    1   3.8321119   3.8492158   3.8533046   3.8769431   3.8985119   3.9274390
          277         278         279         280         281         282
    1   3.9423545   3.9657436   4.0074949   4.0486332   4.0679450   4.0879975
          283         284         285         286         287         288
    1   4.1140004   4.1616534   4.1644631   4.1865911   4.1999484   4.2213313
          289         290         291         292         293         294
    1   4.2659057   4.2997523   4.3193924   4.3832567   4.3910358   4.3988990
          295         296         297         298         299         300
    1   4.4279684   4.4443630   4.4549460   4.4721496   4.5271528   4.5425612
          301         302         303         304         305         306
    1   4.5491135   4.5536355   4.5862276   4.5934201   4.6288058   4.6524979
          307         308         309         310         311         312
    1   4.6697038   4.7249762   4.7715452   4.8098836   4.8101749   4.9128372
          313         314         315         316         317         318
    1   4.9323942   4.9454857   4.9568852   5.0327929   5.0559484   5.1171281
          319         320         321         322         323         324
    1   5.1479503   5.1841694   5.2355318   5.2633170   5.3000251   5.3182992
          325         326         327         328         329         330
    1   5.3549036   5.3729792   5.4676863   5.4960879   5.5544633   5.5850948
          331         332         333         334         335         336
    1   5.5988856   5.6375688   5.7019572   5.7109475   5.8123255   5.8312474
          337         338         339         340         341         342
    1   5.9254747   6.0421208   6.1642334   6.1762921   6.2822271   6.6386172
          343         344         345         346         347         348
    1  23.2501329  23.5014920  23.6108032  23.7169792  23.8399141  23.9051188
          349         350         351         352
    1  23.9185127  24.0234641  24.5166501  33.8478015
 Final Beta MO Eigenvalues
            1           2           3           4           5           6
    1 -15.5588561 -11.2849787 -11.2637911 -11.2533006 -11.2511124 -11.2483906
            7           8           9          10          11          12
    1 -11.2402129 -11.2436083 -11.2365494 -11.2337788  -1.2402864  -1.1225353
           13          14          15          16          17          18
    1  -1.0760323  -1.0235044  -0.9666914  -0.8790741  -0.8400796  -0.8119118
           19          20          21          22          23          24
    1  -0.7220274  -0.6979317  -0.6823730  -0.6315251  -0.6131058  -0.5892901
           25          26          27          28          29          30
    1  -0.5698541  -0.5587334  -0.5290288  -0.5210252  -0.4940957  -0.4146450
           31          32          33          34          35          36
    1  -0.4123440  -0.3689344  -0.3352878   0.0269400   0.1487056   0.1442035
           37          38          39          40          41          42
    1   0.1463585   0.1539873   0.1643164   0.1756035   0.1905467   0.1985013
           43          44          45          46          47          48
    1   0.2059785   0.2181785   0.2514334   0.2332342   0.2740016   0.2924497
           49          50          51          52          53          54
    1   0.3109921   0.3049181   0.3172638   0.3245809   0.3447199   0.3569001
           55          56          57          58          59          60
    1   0.3549477   0.3639433   0.3858955   0.4103872   0.4129037   0.4095274
           61          62          63          64          65          66
    1   0.4265245   0.4310851   0.4479299   0.4611606   0.4771095   0.4760697
           67          68          69          70          71          72
    1   0.4799758   0.4951569   0.5070950   0.5186585   0.5251914   0.5391438
           73          74          75          76          77          78
    1   0.5394006   0.5608223   0.5705522   0.5792311   0.5860400   0.5852695
           79          80          81          82          83          84
    1   0.5887105   0.6096087   0.6267452   0.6378894   0.6588774   0.6478196
           85          86          87          88          89          90
    1   0.6552584   0.6732934   0.6972141   0.6954155   0.7099505   0.7225942
           91          92          93          94          95          96
    1   0.7454215   0.7513432   0.7854299   0.7962831   0.8306442   0.8475611
           97          98          99         100         101         102
    1   0.8495691   0.8667852   0.8724227   0.8712376   0.8784483   0.8997119
          103         104         105         106         107         108
    1   0.9260309   0.9223280   0.9543879   0.9534613   0.9804479   0.9852910
          109         110         111         112         113         114
    1   0.9960339   1.0209239   1.0230399   1.0488831   1.0667717   1.0947302
          115         116         117         118         119         120
    1   1.1057284   1.1122692   1.1307316   1.1581585   1.1767470   1.2046119
          121         122         123         124         125         126
    1   1.2160664   1.2450260   1.2522497   1.3053109   1.3431901   1.3394382
          127         128         129         130         131         132
    1   1.3540388   1.3697148   1.3943183   1.4203676   1.4451255   1.4397722
          133         134         135         136         137         138
    1   1.4489982   1.4590339   1.4680312   1.5015193   1.5133584   1.5429480
          139         140         141         142         143         144
    1   1.5364097   1.5627206   1.5837616   1.6180341   1.6332038   1.6914860
          145         146         147         148         149         150
    1   1.6821639   1.7091647   1.7232597   1.7223620   1.7387163   1.7608207
          151         152         153         154         155         156
    1   1.7678750   1.8041515   1.8012431   1.8220259   1.8266773   1.8388321
          157         158         159         160         161         162
    1   1.8614914   1.8878955   1.9038439   1.9030528   1.9451388   1.9787574
          163         164         165         166         167         168
    1   1.9739939   1.9899187   1.9928202   2.0175301   2.0187340   2.0393230
          169         170         171         172         173         174
    1   2.0617196   2.0743305   2.1015193   2.1414195   2.1573229   2.2185419
          175         176         177         178         179         180
    1   2.2181114   2.2365672   2.2684191   2.2661750   2.2936290   2.3070539
          181         182         183         184         185         186
    1   2.3425896   2.3488844   2.4049468   2.4347657   2.4477838   2.4570228
          187         188         189         190         191         192
    1   2.4596458   2.4816695   2.5164718   2.5446108   2.5484125   2.5862148
          193         194         195         196         197         198
    1   2.5837509   2.6214536   2.6578182   2.6713625   2.7321165   2.7525034
          199         200         201         202         203         204
    1   2.7601062   2.8007225   2.8059514   2.8192621   2.8440122   2.8709976
          205         206         207         208         209         210
    1   2.8908249   2.9063004   2.9305697   2.9262407   2.9524195   2.9591052
          211         212         213         214         215         216
    1   2.9786940   2.9863291   2.9821768   3.0176057   3.0295246   3.0432369
          217         218         219         220         221         222
    1   3.0538934   3.0580766   3.0821426   3.0841468   3.1089788   3.1185118
          223         224         225         226         227         228
    1   3.1392833   3.1431266   3.1656740   3.1781517   3.1792876   3.2104273
          229         230         231         232         233         234
    1   3.2283481   3.2277703   3.2330187   3.2714035   3.2915207   3.2927610
          235         236         237         238         239         240
    1   3.3104553   3.3306979   3.3400398   3.3660257   3.3736264   3.4075488
          241         242         243         244         245         246
    1   3.4084088   3.4273665   3.4319554   3.4515043   3.4544781   3.4776738
          247         248         249         250         251         252
    1   3.4947255   3.5198887   3.5208401   3.5329508   3.5629968   3.5746754
          253         254         255         256         257         258
    1   3.5872842   3.5952390   3.6159996   3.6135619   3.6251389   3.6299901
          259         260         261         262         263         264
    1   3.6483209   3.6730777   3.6810413   3.6971127   3.7104887   3.7179706
          265         266         267         268         269         270
    1   3.7414805   3.7561276   3.7795172   3.7838198   3.8135048   3.8335789
          271         272         273         274         275         276
    1   3.8423844   3.8592567   3.8586436   3.8860332   3.9020092   3.9297174
          277         278         279         280         281         282
    1   3.9491151   3.9705136   4.0109099   4.0524853   4.0768482   4.0913164
          283         284         285         286         287         288
    1   4.1199933   4.1657493   4.1707143   4.1907185   4.2089816   4.2253803
          289         290         291         292         293         294
    1   4.2701892   4.3058738   4.3239126   4.3896582   4.3969796   4.4112775
          295         296         297         298         299         300
    1   4.4350494   4.4478891   4.4593143   4.4848679   4.5310961   4.5459324
          301         302         303         304         305         306
    1   4.5574281   4.5568454   4.5900911   4.5996375   4.6336400   4.6545570
          307         308         309         310         311         312
    1   4.6762561   4.7311309   4.7737882   4.8135420   4.8148384   4.9210611
          313         314         315         316         317         318
    1   4.9362703   4.9494963   4.9600508   5.0409410   5.0594681   5.1219904
          319         320         321         322         323         324
    1   5.1529664   5.1866027   5.2388901   5.2666398   5.3033731   5.3243667
          325         326         327         328         329         330
    1   5.3605628   5.3770202   5.4705955   5.4991710   5.5572979   5.5879548
          331         332         333         334         335         336
    1   5.6025158   5.6414883   5.7051658   5.7132737   5.8144241   5.8337672
          337         338         339         340         341         342
    1   5.9293530   6.0453057   6.1656549   6.1786308   6.2833765   6.6399449
          343         344         345         346         347         348
    1  23.2527522  23.5032214  23.6155962  23.7202563  23.8439517  23.9084238
          349         350         351         352
    1  23.9198817  24.0243877  24.5175432  33.8491208
 SCF time:   CPU 666.92s  wall 669.00s 
<S^2> =          2.000000000
 SCF   energy in the final basis set =     -399.3826603106
 Total energy in the final basis set =     -399.3826603106
  
     ##========================================##
     ||                                        ||
     ||              R A S M A N 2             ||
     ||________________________________________||
     ||                                        ||
     ||  Author:                               ||
     ||                                        ||
     ||        David Casanova (2010)           ||
     ||                                        ||
     ##========================================##
  
Setting single-point xc-functionals (if necessary)

  ***************************************************
  *  RAS-CI Dimensions:                             *
  *                                                 *
  *  Active Elec.:  10 ( 5, 5)   Active Orb.:   8   *
  *  Doubly Occ. :  29           Doubly Vir.: 315   *
  *  Frozen Occ. :  10           Frozen Vir.:   0   *
  *                                                 *
  *  Total CI configurations:   2532320             * 
  *    Active configurations:      3136             * 
  *      Hole configurations:     59584             * 
  *  Particle configurations:   2469600             * 
  *                                                 *
  *   Requested states:       30                    *
  *  Spin multiplicity: Any multiplicity            *
  *                                                 *
  ***************************************************
-----------------------------------------
    Memory requirements of RASCI

 Each CI-vector requires     19.32 MiB 
 Max. subspace vectors           4500      

 Reduced Lists                0.00 MiB 
 Excitation Lists             0.00 MiB 
 Excitation Lists Sign        0.00 MiB 
 CI-space (Max)           87674.44 MiB 
 Integrals                  128.13 MiB 
 Memory required (Max)    87674.45 MiB 
 Memory available          7811.55 MiB 

 Q-Chem warning in module rasman2/ras_mem_check.C, line 162:

 Static memory may be insufficient to store the subspace vectors


    Disk requirements of RASCI

 Fock matrix                  1.89 MiB 
 2-electron integrals       203.02 MiB 
 CI-space                173880.62 MiB 
 Disk required           174085.53 MiB 
-----------------------------------------
  
RAS1 HF-like energy:           -385.5640479826
 Computing integrals
 Computing J and K matrices
 Computing addressing
 Making amplitude guesses
 
Direct CI diagonalization
 ---------------------------------------------------
 Iter    Rts Conv    Rts Left    Ttl Dev     Max Dev
 ---------------------------------------------------
   1         0          30      0.006035    0.000287
   2         0          30      0.003887    0.000200
   3         0          30      0.003198    0.000167
   4         0          30      0.003101    0.000177
   5         0          30      0.003214    0.000267
   6         0          30      0.002504    0.000207
   7         0          30      0.002346    0.000168
   8         0          30      0.002147    0.000155
   9         0          30      0.001770    0.000125
  10         0          30      0.001503    0.000122
  11         0          30      0.001495    0.000105
  12         1          29      0.001435    0.000103
  13         1          29      0.001330    0.000098
  14         1          29      0.001144    0.000096
  15         1          29      0.000960    0.000073
  16         1          29      0.000845    0.000074
  17         2          28      0.000775    0.000081
  18         2          28      0.000658    0.000074
  19         3          27      0.000561    0.000058
  20         3          27      0.000470    0.000052
  21         4          26      0.000463    0.000059
  22         4          26      0.000437    0.000058
  23         4          26      0.000357    0.000043
  24         7          23      0.000295    0.000034
  25        10          20      0.000263    0.000031
  26        10          20      0.000221    0.000025
  27        10          20      0.000175    0.000019
  28        11          19      0.000156    0.000022
  29        13          17      0.000126    0.000017
  30        15          15      0.000099    0.000014
  31        17          13      0.000082    0.000014
  32        18          12      0.000065    0.000010
  33        18          12      0.000051    0.000008
  34        21           9      0.000042    0.000006
  35        22           8      0.000034    0.000006
  36        23           7      0.000028    0.000004
  37        24           6      0.000023    0.000003
  38        23           7      0.000019    0.000003
  39        27           3      0.000016    0.000002
  40        27           3      0.000014    0.000002
  41        28           2      0.000012    0.000001
  42        30           0      0.000012    0.000001    Roots Converged
 ---------------------------------------------------
   
**************************************************
 RAS-CI total energy for state   1:   -399.575719962541
  Excitation energy (eV) =  0.000000000000
  State symmetry: A'    (Cs       )
  <S^2>      :  0.0000
  Dipole Moment:   -0.0405 X     0.8056 Y     0.0000 Z
 NATURAL OCCUPATION NUMBERS (higher than 1.0E-05)
            1           2           3           4           5           6
    1   2.0000000   2.0000000   2.0000000   2.0000000   2.0000000   2.0000000
            7           8           9          10          11          12
    1   2.0000000   2.0000000   2.0000000   2.0000000   2.0000000   2.0000000
           13          14          15          16          17          18
    1   2.0000000   2.0000000   2.0000000   2.0000000   2.0000000   2.0000000
           19          20          21          22          23          24
    1   2.0000000   2.0000000   2.0000000   2.0000000   2.0000000   2.0000000
           25          26          27          28          29          30
    1   2.0000000   2.0000000   2.0000000   2.0000000   2.0000000   1.9749638
           31          32          33          34          35          36
    1   1.9613392   1.9246339   1.9194339   1.8402459   0.1663752   0.0802404
           37          38          39          40          41          42
    1   0.0762305   0.0264154   0.0149286   0.0021871   0.0018687   0.0017471
           43          44          45          46          47          48
    1   0.0013734   0.0011887   0.0010789   0.0009689   0.0009224   0.0008099
           49          50          51          52          53          54
    1   0.0006769   0.0005056   0.0004384   0.0003708   0.0002888   0.0001820
           55          56          57          58          59          60
    1   0.0001583   0.0001391   0.0000875   0.0000457   0.0000303   0.0000274
           61          62          63
    1   0.0000210   0.0000173   0.0000120
Natural Orbitals stored in FCHK

  Amplitudes : 
  
 | HOLE  | ALPHA    | BETA     | PART  |    AMPLITUDE 
--------------------------------------------------
 |       | 11111000 | 11111000 |       |     8.6028327561346E-01
 |       | 11111000 | 10111100 |       |    -1.1919991259491E-01
 |       | 11110100 | 11110100 |       |    -1.8539700589742E-01
 |       | 10111100 | 11111000 |       |    -1.1919991255254E-01
--------------------------------------------------
*** Contributions RASCI wfn    Active:  89.67
                                 Hole:   0.00
                                 Part:  10.33

      Mulliken population analysis 
 ---------------------------------------------------
   Atom    Charge (a.u.)   Spin (a.u.)  
 ---------------------------------------------------
   1  C   -0.001920       -0.000000 
   2  C    0.295708       -0.000000 
   3  C   -0.174679        0.000000 
   4  C   -0.139186       -0.000000 
   5  C   -0.070593       -0.000000 
   6  C   -0.292038        0.000000 
   7  N   -0.296332       -0.000000 
   8  C   -0.168378       -0.000000 
   9  C   -0.100561        0.000000 
  10  C    0.007831        0.000000 
  11  H    0.134957       -0.000000 
  12  H    0.130759       -0.000000 
  13  H    0.127260        0.000000 
  14  H    0.142071        0.000000 
  15  H    0.131073       -0.000000 
  16  H    0.131108        0.000000 
  17  H    0.142920        0.000000 
 ---------------------------------------------------
   Sum:    0.000000       -0.000000 
 ---------------------------------------------------
 
  
 NATURAL OCCUPATION NUMBERS (higher than 1.0E-05)
            1           2           3           4           5           6
    1   2.0000000   2.0000000   2.0000000   2.0000000   2.0000000   2.0000000
            7           8           9          10          11          12
    1   2.0000000   2.0000000   2.0000000   2.0000000   2.0000000   2.0000000
           13          14          15          16          17          18
    1   2.0000000   2.0000000   2.0000000   2.0000000   2.0000000   2.0000000
           19          20          21          22          23          24
    1   2.0000000   2.0000000   2.0000000   2.0000000   2.0000000   2.0000000
           25          26          27          28          29          30
    1   2.0000000   2.0000000   2.0000000   2.0000000   2.0000000   1.9749638
           31          32          33          34          35          36
    1   1.9613392   1.9246339   1.9194339   1.8402459   0.1663752   0.0802404
           37          38          39          40          41          42
    1   0.0762305   0.0264154   0.0149286   0.0021871   0.0018687   0.0017471
           43          44          45          46          47          48
    1   0.0013734   0.0011887   0.0010789   0.0009689   0.0009224   0.0008099
           49          50          51          52          53          54
    1   0.0006769   0.0005056   0.0004384   0.0003708   0.0002888   0.0001820
           55          56          57          58          59          60
    1   0.0001583   0.0001391   0.0000875   0.0000457   0.0000303   0.0000274
           61          62          63
    1   0.0000210   0.0000173   0.0000120
  
*** Unpaired Electrons
 Yamaguchi Nd:         1.44
 Head-Gordon Nu:       0.76
 Head-Gordon Nu_nl:    0.28
  
**************************************************
 RAS-CI total energy for state   2:   -399.492610925536
  Excitation energy (eV) =  2.261511959049
  State symmetry: A'    (Cs       )
  <S^2>      :  2.0000
  Dipole Moment:   -0.3275 X     0.7439 Y    -0.0000 Z
  Trans. Moment:   -0.0000 X    -0.0000 Y    -0.0000 Z
  Strength   :  0.000000
  Natural transition orbitals ( 1 -> 2 ):
   e-/hole pair  1:  ampl =  0.873123 ( 76.2%)   [8 : 9]
   e-/hole pair  2:  ampl =  0.229017 (  5.2%)   [7 : 10]
   Sum of square amplitudes: 0.92

 NATURAL OCCUPATION NUMBERS (higher than 1.0E-05)
            1           2           3           4           5           6
    1   2.0000000   2.0000000   2.0000000   2.0000000   2.0000000   2.0000000
            7           8           9          10          11          12
    1   2.0000000   2.0000000   2.0000000   2.0000000   2.0000000   2.0000000
           13          14          15          16          17          18
    1   2.0000000   2.0000000   2.0000000   2.0000000   2.0000000   2.0000000
           19          20          21          22          23          24
    1   2.0000000   2.0000000   2.0000000   2.0000000   2.0000000   2.0000000
           25          26          27          28          29          30
    1   2.0000000   2.0000000   2.0000000   2.0000000   2.0000000   1.9656521
           31          32          33          34          35          36
    1   1.9511064   1.9136403   1.8886918   1.0622780   0.9424148   0.1173343
           37          38          39          40          41          42
    1   0.0890948   0.0317270   0.0219327   0.0024546   0.0023340   0.0017664
           43          44          45          46          47          48
    1   0.0015956   0.0012119   0.0011014   0.0010057   0.0009508   0.0007330
           49          50          51          52          53          54
    1   0.0006496   0.0004672   0.0003913   0.0003414   0.0003322   0.0001641
           55          56          57          58          59          60
    1   0.0001548   0.0001309   0.0000814   0.0000605   0.0000478   0.0000328
           61          62          63          64
    1   0.0000238   0.0000216   0.0000138   0.0000119
Natural Orbitals stored in FCHK

  Amplitudes : 
  
 | HOLE  | ALPHA    | BETA     | PART  |    AMPLITUDE 
--------------------------------------------------
 |       | 11111000 | 11110100 |       |    -5.9709313533281E-01
 |       | 11111000 | 11011100 |       |    -1.2436909288547E-01
 |       | 11111000 | 11011010 |       |    -1.2980802317045E-01
 |       | 11110100 | 11111000 |       |     5.9709313538746E-01
 |       | 11011100 | 11111000 |       |     1.2436909286608E-01
 |       | 11011010 | 11111000 |       |     1.2980801880973E-01
--------------------------------------------------
*** Contributions RASCI wfn    Active:  91.09
                                 Hole:   0.00
                                 Part:   8.91

      Mulliken population analysis 
 ---------------------------------------------------
   Atom    Charge (a.u.)   Spin (a.u.)  
 ---------------------------------------------------
   1  C   -0.001255       -0.000000 
   2  C    0.302199       -0.000000 
   3  C   -0.152132       -0.000000 
   4  C   -0.135816        0.000000 
   5  C   -0.075928       -0.000000 
   6  C   -0.267898        0.000000 
   7  N   -0.288291       -0.000000 
   8  C   -0.202016       -0.000000 
   9  C   -0.094232        0.000000 
  10  C   -0.023160        0.000000 
  11  H    0.134428        0.000000 
  12  H    0.130687       -0.000000 
  13  H    0.126895        0.000000 
  14  H    0.141893       -0.000000 
  15  H    0.130950        0.000000 
  16  H    0.130930        0.000000 
  17  H    0.142746        0.000000 
 ---------------------------------------------------
   Sum:    0.000000       -0.000000 
 ---------------------------------------------------
 
  
 NATURAL OCCUPATION NUMBERS (higher than 1.0E-05)
            1           2           3           4           5           6
    1   2.0000000   2.0000000   2.0000000   2.0000000   2.0000000   2.0000000
            7           8           9          10          11          12
    1   2.0000000   2.0000000   2.0000000   2.0000000   2.0000000   2.0000000
           13          14          15          16          17          18
    1   2.0000000   2.0000000   2.0000000   2.0000000   2.0000000   2.0000000
           19          20          21          22          23          24
    1   2.0000000   2.0000000   2.0000000   2.0000000   2.0000000   2.0000000
           25          26          27          28          29          30
    1   2.0000000   2.0000000   2.0000000   2.0000000   2.0000000   1.9656521
           31          32          33          34          35          36
    1   1.9511064   1.9136403   1.8886918   1.0622780   0.9424148   0.1173343
           37          38          39          40          41          42
    1   0.0890948   0.0317270   0.0219327   0.0024546   0.0023340   0.0017664
           43          44          45          46          47          48
    1   0.0015956   0.0012119   0.0011014   0.0010057   0.0009508   0.0007330
           49          50          51          52          53          54
    1   0.0006496   0.0004672   0.0003913   0.0003414   0.0003322   0.0001641
           55          56          57          58          59          60
    1   0.0001548   0.0001309   0.0000814   0.0000605   0.0000478   0.0000328
           61          62          63          64
    1   0.0000238   0.0000216   0.0000138   0.0000119
  
*** Unpaired Electrons
 Yamaguchi Nd:         3.06
 Head-Gordon Nu:       2.44
 Head-Gordon Nu_nl:    2.15
  
**************************************************
 RAS-CI total energy for state   3:   -399.426756364187
  Excitation energy (eV) =  4.053505747145
  State symmetry: A'    (Cs       )
  <S^2>      :  2.0000
  Dipole Moment:   -0.2193 X     0.6994 Y     0.0000 Z
  Trans. Moment:    0.0000 X    -0.0000 Y     0.0000 Z
  Strength   :  0.000000
  Natural transition orbitals ( 1 -> 3 ):
   e-/hole pair  1:  ampl =  0.677838 ( 45.9%)   [8 : 9]
   e-/hole pair  2:  ampl =  0.584799 ( 34.2%)   [7 : 10]
   Sum of square amplitudes: 0.84

 NATURAL OCCUPATION NUMBERS (higher than 1.0E-05)
            1           2           3           4           5           6
    1   2.0000000   2.0000000   2.0000000   2.0000000   2.0000000   2.0000000
            7           8           9          10          11          12
    1   2.0000000   2.0000000   2.0000000   2.0000000   2.0000000   2.0000000
           13          14          15          16          17          18
    1   2.0000000   2.0000000   2.0000000   2.0000000   2.0000000   2.0000000
           19          20          21          22          23          24
    1   2.0000000   2.0000000   2.0000000   2.0000000   2.0000000   2.0000000
           25          26          27          28          29          30
    1   2.0000000   2.0000000   2.0000000   2.0000000   2.0000000   1.9557164
           31          32          33          34          35          36
    1   1.9447865   1.9216995   1.5097317   1.3931847   0.6198581   0.4859123
           37          38          39          40          41          42
    1   0.0862235   0.0362664   0.0279695   0.0034482   0.0026845   0.0021234
           43          44          45          46          47          48
    1   0.0015166   0.0014076   0.0012506   0.0011412   0.0009833   0.0009054
           49          50          51          52          53          54
    1   0.0007235   0.0005734   0.0004044   0.0003401   0.0002921   0.0001529
           55          56          57          58          59          60
    1   0.0001468   0.0001388   0.0001161   0.0000928   0.0000437   0.0000323
           61          62          63          64
    1   0.0000276   0.0000196   0.0000189   0.0000118
Natural Orbitals stored in FCHK

  Amplitudes : 
  
 | HOLE  | ALPHA    | BETA     | PART  |    AMPLITUDE 
--------------------------------------------------
 |       | 11111000 | 11110100 |       |    -2.3246739004684E-01
 |       | 11111000 | 11110010 |       |     3.2606383165834E-01
 |       | 11111000 | 11101100 |       |     2.1426632355477E-01
 |       | 11111000 | 11011100 |       |     2.7687221859629E-01
 |       | 11111000 | 11011010 |       |     2.3491707443512E-01
 |       | 11111000 | 11011001 |       |     1.2679141443694E-01
 |       | 11110100 | 11111000 |       |     2.3246738998190E-01
 |       | 11110010 | 11111000 |       |    -3.2606382440815E-01
 |       | 11101100 | 11111000 |       |    -2.1426632429274E-01
 |       | 11011100 | 11111000 |       |    -2.7687221840142E-01
 |       | 11011010 | 11111000 |       |    -2.3491707090034E-01
 |       | 11011001 | 11111000 |       |    -1.2679143065989E-01
--------------------------------------------------
*** Contributions RASCI wfn    Active:  87.80
                                 Hole:   0.00
                                 Part:  12.20

      Mulliken population analysis 
 ---------------------------------------------------
   Atom    Charge (a.u.)   Spin (a.u.)  
 ---------------------------------------------------
   1  C    0.015141        0.000000 
   2  C    0.275982       -0.000000 
   3  C   -0.182997        0.000000 
   4  C   -0.128606        0.000000 
   5  C   -0.061674       -0.000000 
   6  C   -0.286741        0.000000 
   7  N   -0.269034        0.000000 
   8  C   -0.187820       -0.000000 
   9  C   -0.101153       -0.000000 
  10  C   -0.010889        0.000000 
  11  H    0.134096       -0.000000 
  12  H    0.130712       -0.000000 
  13  H    0.126835       -0.000000 
  14  H    0.141612        0.000000 
  15  H    0.131098        0.000000 
  16  H    0.130919       -0.000000 
  17  H    0.142522        0.000000 
 ---------------------------------------------------
   Sum:    0.000000       -0.000000 
 ---------------------------------------------------
 
  
 NATURAL OCCUPATION NUMBERS (higher than 1.0E-05)
            1           2           3           4           5           6
    1   2.0000000   2.0000000   2.0000000   2.0000000   2.0000000   2.0000000
            7           8           9          10          11          12
    1   2.0000000   2.0000000   2.0000000   2.0000000   2.0000000   2.0000000
           13          14          15          16          17          18
    1   2.0000000   2.0000000   2.0000000   2.0000000   2.0000000   2.0000000
           19          20          21          22          23          24
    1   2.0000000   2.0000000   2.0000000   2.0000000   2.0000000   2.0000000
           25          26          27          28          29          30
    1   2.0000000   2.0000000   2.0000000   2.0000000   2.0000000   1.9557164
           31          32          33          34          35          36
    1   1.9447865   1.9216995   1.5097317   1.3931847   0.6198581   0.4859123
           37          38          39          40          41          42
    1   0.0862235   0.0362664   0.0279695   0.0034482   0.0026845   0.0021234
           43          44          45          46          47          48
    1   0.0015166   0.0014076   0.0012506   0.0011412   0.0009833   0.0009054
           49          50          51          52          53          54
    1   0.0007235   0.0005734   0.0004044   0.0003401   0.0002921   0.0001529
           55          56          57          58          59          60
    1   0.0001468   0.0001388   0.0001161   0.0000928   0.0000437   0.0000323
           61          62          63          64
    1   0.0000276   0.0000196   0.0000189   0.0000118
  
*** Unpaired Electrons
 Yamaguchi Nd:         3.85
 Head-Gordon Nu:       2.55
 Head-Gordon Nu_nl:    2.61
  
**************************************************
 RAS-CI total energy for state   4:   -399.424864567982
  Excitation energy (eV) =  4.104984141027
  State symmetry: A'    (Cs       )
  <S^2>      :  2.0000
  Dipole Moment:   -0.0060 X     0.7680 Y     0.0000 Z
  Trans. Moment:    0.0000 X     0.0000 Y    -0.0000 Z
  Strength   :  0.000000
  Natural transition orbitals ( 1 -> 4 ):
   e-/hole pair  1:  ampl =  0.696985 ( 48.6%)   [8 : 9]
   e-/hole pair  2:  ampl =  0.524282 ( 27.5%)   [7 : 10]
   Sum of square amplitudes: 0.78

 NATURAL OCCUPATION NUMBERS (higher than 1.0E-05)
            1           2           3           4           5           6
    1   2.0000000   2.0000000   2.0000000   2.0000000   2.0000000   2.0000000
            7           8           9          10          11          12
    1   2.0000000   2.0000000   2.0000000   2.0000000   2.0000000   2.0000000
           13          14          15          16          17          18
    1   2.0000000   2.0000000   2.0000000   2.0000000   2.0000000   2.0000000
           19          20          21          22          23          24
    1   2.0000000   2.0000000   2.0000000   2.0000000   2.0000000   2.0000000
           25          26          27          28          29          30
    1   2.0000000   2.0000000   2.0000000   2.0000000   2.0000000   1.9555203
           31          32          33          34          35          36
    1   1.9263709   1.9158161   1.5498878   1.3680493   0.6913711   0.4064912
           37          38          39          40          41          42
    1   0.0937452   0.0489237   0.0242049   0.0030806   0.0028025   0.0024105
           43          44          45          46          47          48
    1   0.0017934   0.0013160   0.0012957   0.0012243   0.0010909   0.0010772
           49          50          51          52          53          54
    1   0.0008814   0.0006310   0.0004059   0.0003503   0.0003298   0.0001779
           55          56          57          58          59          60
    1   0.0001646   0.0001486   0.0001301   0.0000913   0.0000396   0.0000375
           61          62          63          64          65
    1   0.0000255   0.0000220   0.0000196   0.0000118   0.0000106
Natural Orbitals stored in FCHK

  Amplitudes : 
  
 | HOLE  | ALPHA    | BETA     | PART  |    AMPLITUDE 
--------------------------------------------------
 |       | 11111000 | 11110100 |       |     1.0418580815584E-01
 |       | 11111000 | 11110001 |       |    -3.1107836114594E-01
 |       | 11111000 | 11101100 |       |     3.8473548222784E-01
 |       | 11111000 | 11101010 |       |     1.3794087435336E-01
 |       | 11111000 | 11011100 |       |    -1.5054190550810E-01
 |       | 11111000 | 11011001 |       |    -1.6870023729366E-01
 |       | 11110100 | 11111000 |       |    -1.0418580816940E-01
 |       | 11110001 | 11111000 |       |     3.1107834512113E-01
 |       | 11110001 | 10111100 |       |    -1.1326656291568E-01
 |       | 11101100 | 11111000 |       |    -3.8473547976066E-01
 |       | 11101010 | 11111000 |       |    -1.3794085470798E-01
 |       | 11011100 | 11111000 |       |     1.5054190549040E-01
 |       | 11011001 | 11111000 |       |     1.6870026267770E-01
 |       | 10111100 | 11110001 |       |     1.1326657460301E-01
 |       | 11110000 | 11101100 |  45   |     1.2471984031519E-01
 |       | 11101100 | 11110000 |  45   |    -1.2471987292956E-01
--------------------------------------------------
*** Contributions RASCI wfn    Active:  85.11
                                 Hole:   0.00
                                 Part:  14.89

      Mulliken population analysis 
 ---------------------------------------------------
   Atom    Charge (a.u.)   Spin (a.u.)  
 ---------------------------------------------------
   1  C    0.009601       -0.000000 
   2  C    0.314144        0.000000 
   3  C   -0.185425        0.000000 
   4  C   -0.124845        0.000000 
   5  C   -0.050964       -0.000000 
   6  C   -0.321377       -0.000000 
   7  N   -0.310136       -0.000000 
   8  C   -0.233932       -0.000000 
   9  C   -0.041520        0.000000 
  10  C    0.006469        0.000000 
  11  H    0.134091       -0.000000 
  12  H    0.130730        0.000000 
  13  H    0.127040        0.000000 
  14  H    0.141789        0.000000 
  15  H    0.130727        0.000000 
  16  H    0.130985        0.000000 
  17  H    0.142623        0.000000 
 ---------------------------------------------------
   Sum:    0.000000       -0.000000 
 ---------------------------------------------------
 
  
 NATURAL OCCUPATION NUMBERS (higher than 1.0E-05)
            1           2           3           4           5           6
    1   2.0000000   2.0000000   2.0000000   2.0000000   2.0000000   2.0000000
            7           8           9          10          11          12
    1   2.0000000   2.0000000   2.0000000   2.0000000   2.0000000   2.0000000
           13          14          15          16          17          18
    1   2.0000000   2.0000000   2.0000000   2.0000000   2.0000000   2.0000000
           19          20          21          22          23          24
    1   2.0000000   2.0000000   2.0000000   2.0000000   2.0000000   2.0000000
           25          26          27          28          29          30
    1   2.0000000   2.0000000   2.0000000   2.0000000   2.0000000   1.9555203
           31          32          33          34          35          36
    1   1.9263709   1.9158161   1.5498878   1.3680493   0.6913711   0.4064912
           37          38          39          40          41          42
    1   0.0937452   0.0489237   0.0242049   0.0030806   0.0028025   0.0024105
           43          44          45          46          47          48
    1   0.0017934   0.0013160   0.0012957   0.0012243   0.0010909   0.0010772
           49          50          51          52          53          54
    1   0.0008814   0.0006310   0.0004059   0.0003503   0.0003298   0.0001779
           55          56          57          58          59          60
    1   0.0001646   0.0001486   0.0001301   0.0000913   0.0000396   0.0000375
           61          62          63          64          65
    1   0.0000255   0.0000220   0.0000196   0.0000118   0.0000106
  
*** Unpaired Electrons
 Yamaguchi Nd:         3.87
 Head-Gordon Nu:       2.57
 Head-Gordon Nu_nl:    2.57
  
**************************************************
 RAS-CI total energy for state   5:   -399.423132693996
  Excitation energy (eV) =  4.152110829924
  State symmetry: A'    (Cs       )
  <S^2>      :  0.0000
  Dipole Moment:   -0.1663 X     0.7584 Y    -0.0000 Z
  Trans. Moment:    0.2871 X    -0.0096 Y    -0.0000 Z
  Strength   :  0.008392
  Natural transition orbitals ( 1 -> 5 ):
   e-/hole pair  1:  ampl =  0.621299 ( 38.6%)   [8 : 9]
   e-/hole pair  2:  ampl =  0.569571 ( 32.4%)   [7 : 10]
   Sum of square amplitudes: 0.74

 NATURAL OCCUPATION NUMBERS (higher than 1.0E-05)
            1           2           3           4           5           6
    1   2.0000000   2.0000000   2.0000000   2.0000000   2.0000000   2.0000000
            7           8           9          10          11          12
    1   2.0000000   2.0000000   2.0000000   2.0000000   2.0000000   2.0000000
           13          14          15          16          17          18
    1   2.0000000   2.0000000   2.0000000   2.0000000   2.0000000   2.0000000
           19          20          21          22          23          24
    1   2.0000000   2.0000000   2.0000000   2.0000000   2.0000000   2.0000000
           25          26          27          28          29          30
    1   2.0000000   2.0000000   2.0000000   2.0000000   2.0000000   1.9461530
           31          32          33          34          35          36
    1   1.9192208   1.8916576   1.4794919   1.4478907   0.6237344   0.4935357
           37          38          39          40          41          42
    1   0.0930784   0.0621282   0.0279204   0.0023608   0.0021277   0.0017160
           43          44          45          46          47          48
    1   0.0014789   0.0012706   0.0009911   0.0009831   0.0008696   0.0007872
           49          50          51          52          53          54
    1   0.0005511   0.0003470   0.0003028   0.0002677   0.0002523   0.0001886
           55          56          57          58          59          60
    1   0.0001503   0.0001323   0.0001055   0.0000725   0.0000413   0.0000370
           61          62          63          64
    1   0.0000351   0.0000204   0.0000185   0.0000163
Natural Orbitals stored in FCHK

  Amplitudes : 
  
 | HOLE  | ALPHA    | BETA     | PART  |    AMPLITUDE 
--------------------------------------------------
 |       | 11111000 | 11110010 |       |    -2.2984931396966E-01
 |       | 11111000 | 11110001 |       |     2.8298057954014E-01
 |       | 11111000 | 11101100 |       |     4.0258218828825E-01
 |       | 11111000 | 11101010 |       |     1.2044071380345E-01
 |       | 11110010 | 11111000 |       |    -2.2984933712868E-01
 |       | 11110001 | 11111000 |       |     2.8298056829203E-01
 |       | 11110001 | 10111100 |       |    -1.0923125476813E-01
 |       | 11101100 | 11111000 |       |     4.0258219041121E-01
 |       | 11101010 | 11111000 |       |     1.2044072520838E-01
 |       | 10111100 | 11110001 |       |    -1.0923126621665E-01
 |       | 11110000 | 11101100 |  45   |     1.2099987621086E-01
 |       | 11101100 | 11110000 |  45   |     1.2099988430045E-01
--------------------------------------------------
*** Contributions RASCI wfn    Active:  84.45
                                 Hole:   0.00
                                 Part:  15.55

      Mulliken population analysis 
 ---------------------------------------------------
   Atom    Charge (a.u.)   Spin (a.u.)  
 ---------------------------------------------------
   1  C    0.010376       -0.000000 
   2  C    0.304352        0.000000 
   3  C   -0.167037        0.000000 
   4  C   -0.139877       -0.000000 
   5  C   -0.067727        0.000000 
   6  C   -0.290654        0.000000 
   7  N   -0.289721        0.000000 
   8  C   -0.194036        0.000000 
   9  C   -0.097692        0.000000 
  10  C   -0.005648       -0.000000 
  11  H    0.134539        0.000000 
  12  H    0.130365        0.000000 
  13  H    0.126728       -0.000000 
  14  H    0.141973        0.000000 
  15  H    0.130629       -0.000000 
  16  H    0.130655        0.000000 
  17  H    0.142777       -0.000000 
 ---------------------------------------------------
   Sum:    0.000000       -0.000000 
 ---------------------------------------------------
 
  
 NATURAL OCCUPATION NUMBERS (higher than 1.0E-05)
            1           2           3           4           5           6
    1   2.0000000   2.0000000   2.0000000   2.0000000   2.0000000   2.0000000
            7           8           9          10          11          12
    1   2.0000000   2.0000000   2.0000000   2.0000000   2.0000000   2.0000000
           13          14          15          16          17          18
    1   2.0000000   2.0000000   2.0000000   2.0000000   2.0000000   2.0000000
           19          20          21          22          23          24
    1   2.0000000   2.0000000   2.0000000   2.0000000   2.0000000   2.0000000
           25          26          27          28          29          30
    1   2.0000000   2.0000000   2.0000000   2.0000000   2.0000000   1.9461530
           31          32          33          34          35          36
    1   1.9192208   1.8916576   1.4794919   1.4478907   0.6237344   0.4935357
           37          38          39          40          41          42
    1   0.0930784   0.0621282   0.0279204   0.0023608   0.0021277   0.0017160
           43          44          45          46          47          48
    1   0.0014789   0.0012706   0.0009911   0.0009831   0.0008696   0.0007872
           49          50          51          52          53          54
    1   0.0005511   0.0003470   0.0003028   0.0002677   0.0002523   0.0001886
           55          56          57          58          59          60
    1   0.0001503   0.0001323   0.0001055   0.0000725   0.0000413   0.0000370
           61          62          63          64
    1   0.0000351   0.0000204   0.0000185   0.0000163
  
*** Unpaired Electrons
 Yamaguchi Nd:         4.02
 Head-Gordon Nu:       2.63
 Head-Gordon Nu_nl:    2.65
  
**************************************************
 RAS-CI total energy for state   6:   -399.399990420322
  Excitation energy (eV) =  4.781844136414
  State symmetry: A'    (Cs       )
  <S^2>      :  0.0000
  Dipole Moment:   -1.4746 X     0.8890 Y     0.0000 Z
  Trans. Moment:    0.1922 X     0.7552 Y    -0.0000 Z
  Strength   :  0.071152
  Natural transition orbitals ( 1 -> 6 ):
   e-/hole pair  1:  ampl =  0.822387 ( 67.6%)   [8 : 9]
   e-/hole pair  2:  ampl =  0.129065 (  1.7%)   [7 : 10]
   Sum of square amplitudes: 0.71

 NATURAL OCCUPATION NUMBERS (higher than 1.0E-05)
            1           2           3           4           5           6
    1   2.0000000   2.0000000   2.0000000   2.0000000   2.0000000   2.0000000
            7           8           9          10          11          12
    1   2.0000000   2.0000000   2.0000000   2.0000000   2.0000000   2.0000000
           13          14          15          16          17          18
    1   2.0000000   2.0000000   2.0000000   2.0000000   2.0000000   2.0000000
           19          20          21          22          23          24
    1   2.0000000   2.0000000   2.0000000   2.0000000   2.0000000   2.0000000
           25          26          27          28          29          30
    1   2.0000000   2.0000000   2.0000000   2.0000000   2.0000000   1.9709644
           31          32          33          34          35          36
    1   1.9487206   1.9452145   1.9065711   1.2021855   0.8063039   0.0833330
           37          38          39          40          41          42
    1   0.0744757   0.0259946   0.0130419   0.0035939   0.0031197   0.0025501
           43          44          45          46          47          48
    1   0.0019740   0.0019243   0.0017661   0.0015111   0.0012824   0.0010264
           49          50          51          52          53          54
    1   0.0009163   0.0008215   0.0006191   0.0005714   0.0004352   0.0002552
           55          56          57          58          59          60
    1   0.0002150   0.0001643   0.0001056   0.0000873   0.0000587   0.0000463
           61          62          63          64
    1   0.0000368   0.0000283   0.0000159   0.0000116
Natural Orbitals stored in FCHK

  Amplitudes : 
  
 | HOLE  | ALPHA    | BETA     | PART  |    AMPLITUDE 
--------------------------------------------------
 |       | 11111000 | 11110100 |       |     4.3430173941176E-01
 |       | 11111000 | 11110010 |       |     3.1443748828904E-01
 |       | 11111000 | 11110001 |       |     2.0966178578189E-01
 |       | 11110100 | 11111000 |       |     4.3430173915908E-01
 |       | 11110100 | 11101100 |       |     1.0625498360771E-01
 |       | 11110100 | 10111100 |       |    -1.4922325755470E-01
 |       | 11110010 | 11111000 |       |     3.1443748405957E-01
 |       | 11110010 | 11101100 |       |     1.0612573866999E-01
 |       | 11110001 | 11111000 |       |     2.0966179358969E-01
 |       | 11101100 | 11110100 |       |     1.0625498346400E-01
 |       | 11101100 | 11110010 |       |     1.0612578065883E-01
 |       | 10111100 | 11110100 |       |    -1.4922321589269E-01
--------------------------------------------------
*** Contributions RASCI wfn    Active:  90.73
                                 Hole:   0.00
                                 Part:   9.27

      Mulliken population analysis 
 ---------------------------------------------------
   Atom    Charge (a.u.)   Spin (a.u.)  
 ---------------------------------------------------
   1  C    0.001265        0.000000 
   2  C    0.316600       -0.000000 
   3  C   -0.004916       -0.000000 
   4  C   -0.157300        0.000000 
   5  C   -0.030529        0.000000 
   6  C   -0.195782        0.000000 
   7  N   -0.459098        0.000000 
   8  C   -0.308466       -0.000000 
   9  C   -0.123035       -0.000000 
  10  C    0.021799        0.000000 
  11  H    0.133107       -0.000000 
  12  H    0.130436       -0.000000 
  13  H    0.127121        0.000000 
  14  H    0.143209       -0.000000 
  15  H    0.130811        0.000000 
  16  H    0.131338       -0.000000 
  17  H    0.143440        0.000000 
 ---------------------------------------------------
   Sum:    0.000000       -0.000000 
 ---------------------------------------------------
 
  
 NATURAL OCCUPATION NUMBERS (higher than 1.0E-05)
            1           2           3           4           5           6
    1   2.0000000   2.0000000   2.0000000   2.0000000   2.0000000   2.0000000
            7           8           9          10          11          12
    1   2.0000000   2.0000000   2.0000000   2.0000000   2.0000000   2.0000000
           13          14          15          16          17          18
    1   2.0000000   2.0000000   2.0000000   2.0000000   2.0000000   2.0000000
           19          20          21          22          23          24
    1   2.0000000   2.0000000   2.0000000   2.0000000   2.0000000   2.0000000
           25          26          27          28          29          30
    1   2.0000000   2.0000000   2.0000000   2.0000000   2.0000000   1.9709644
           31          32          33          34          35          36
    1   1.9487206   1.9452145   1.9065711   1.2021855   0.8063039   0.0833330
           37          38          39          40          41          42
    1   0.0744757   0.0259946   0.0130419   0.0035939   0.0031197   0.0025501
           43          44          45          46          47          48
    1   0.0019740   0.0019243   0.0017661   0.0015111   0.0012824   0.0010264
           49          50          51          52          53          54
    1   0.0009163   0.0008215   0.0006191   0.0005714   0.0004352   0.0002552
           55          56          57          58          59          60
    1   0.0002150   0.0001643   0.0001056   0.0000873   0.0000587   0.0000463
           61          62          63          64
    1   0.0000368   0.0000283   0.0000159   0.0000116
  
*** Unpaired Electrons
 Yamaguchi Nd:         2.79
 Head-Gordon Nu:       2.05
 Head-Gordon Nu_nl:    1.95
  
**************************************************
 RAS-CI total energy for state   7:   -399.387525182449
  Excitation energy (eV) =  5.121040516718
  State symmetry: A'    (Cs       )
  <S^2>      :  2.0000
  Dipole Moment:   -0.1201 X     0.8138 Y     0.0000 Z
  Trans. Moment:   -0.0000 X    -0.0000 Y    -0.0000 Z
  Strength   :  0.000000
  Natural transition orbitals ( 1 -> 7 ):
   e-/hole pair  1:  ampl =  0.875033 ( 76.6%)   [8 : 9]
   e-/hole pair  2:  ampl =  0.169832 (  2.9%)   [7 : 10]
   Sum of square amplitudes: 0.84

 NATURAL OCCUPATION NUMBERS (higher than 1.0E-05)
            1           2           3           4           5           6
    1   2.0000000   2.0000000   2.0000000   2.0000000   2.0000000   2.0000000
            7           8           9          10          11          12
    1   2.0000000   2.0000000   2.0000000   2.0000000   2.0000000   2.0000000
           13          14          15          16          17          18
    1   2.0000000   2.0000000   2.0000000   2.0000000   2.0000000   2.0000000
           19          20          21          22          23          24
    1   2.0000000   2.0000000   2.0000000   2.0000000   2.0000000   2.0000000
           25          26          27          28          29          30
    1   2.0000000   2.0000000   2.0000000   2.0000000   2.0000000   1.9518598
           31          32          33          34          35          36
    1   1.9231374   1.8963321   1.8191612   1.0843204   0.9181097   0.1939512
           37          38          39          40          41          42
    1   0.0954712   0.0716448   0.0277272   0.0029752   0.0024721   0.0022636
           43          44          45          46          47          48
    1   0.0019925   0.0015460   0.0012355   0.0010283   0.0009481   0.0008532
           49          50          51          52          53          54
    1   0.0007076   0.0005595   0.0003647   0.0002572   0.0002383   0.0001969
           55          56          57          58          59          60
    1   0.0001337   0.0001228   0.0001131   0.0000734   0.0000400   0.0000320
           61          62          63          64
    1   0.0000233   0.0000210   0.0000196   0.0000151
Natural Orbitals stored in FCHK

  Amplitudes : 
  
 | HOLE  | ALPHA    | BETA     | PART  |    AMPLITUDE 
--------------------------------------------------
 |       | 11111000 | 11110001 |       |     1.1751269539967E-01
 |       | 11111000 | 11101010 |       |    -3.2777149762054E-01
 |       | 11111000 | 11101001 |       |     4.3776320953656E-01
 |       | 11110001 | 11111000 |       |    -1.1751269761748E-01
 |       | 11101010 | 11111000 |       |     3.2777149333709E-01
 |       | 11101001 | 11111000 |       |    -4.3776327596672E-01
--------------------------------------------------
*** Contributions RASCI wfn    Active:  81.71
                                 Hole:   0.00
                                 Part:  18.29

      Mulliken population analysis 
 ---------------------------------------------------
   Atom    Charge (a.u.)   Spin (a.u.)  
 ---------------------------------------------------
   1  C    0.017026        0.000000 
   2  C    0.295682       -0.000000 
   3  C   -0.176632        0.000000 
   4  C   -0.109078        0.000000 
   5  C   -0.100640       -0.000000 
   6  C   -0.285033        0.000000 
   7  N   -0.300471       -0.000000 
   8  C   -0.177229       -0.000000 
   9  C   -0.126287        0.000000 
  10  C    0.025435       -0.000000 
  11  H    0.134851        0.000000 
  12  H    0.129768        0.000000 
  13  H    0.126706       -0.000000 
  14  H    0.142044       -0.000000 
  15  H    0.130699       -0.000000 
  16  H    0.130203       -0.000000 
  17  H    0.142958       -0.000000 
 ---------------------------------------------------
   Sum:    0.000000       -0.000000 
 ---------------------------------------------------
 
  
 NATURAL OCCUPATION NUMBERS (higher than 1.0E-05)
            1           2           3           4           5           6
    1   2.0000000   2.0000000   2.0000000   2.0000000   2.0000000   2.0000000
            7           8           9          10          11          12
    1   2.0000000   2.0000000   2.0000000   2.0000000   2.0000000   2.0000000
           13          14          15          16          17          18
    1   2.0000000   2.0000000   2.0000000   2.0000000   2.0000000   2.0000000
           19          20          21          22          23          24
    1   2.0000000   2.0000000   2.0000000   2.0000000   2.0000000   2.0000000
           25          26          27          28          29          30
    1   2.0000000   2.0000000   2.0000000   2.0000000   2.0000000   1.9518598
           31          32          33          34          35          36
    1   1.9231374   1.8963321   1.8191612   1.0843204   0.9181097   0.1939512
           37          38          39          40          41          42
    1   0.0954712   0.0716448   0.0277272   0.0029752   0.0024721   0.0022636
           43          44          45          46          47          48
    1   0.0019925   0.0015460   0.0012355   0.0010283   0.0009481   0.0008532
           49          50          51          52          53          54
    1   0.0007076   0.0005595   0.0003647   0.0002572   0.0002383   0.0001969
           55          56          57          58          59          60
    1   0.0001337   0.0001228   0.0001131   0.0000734   0.0000400   0.0000320
           61          62          63          64
    1   0.0000233   0.0000210   0.0000196   0.0000151
  
*** Unpaired Electrons
 Yamaguchi Nd:         3.52
 Head-Gordon Nu:       2.65
 Head-Gordon Nu_nl:    2.33
  
**************************************************
 RAS-CI total energy for state   8:   -399.379818829615
  Excitation energy (eV) =  5.330741046562
  State symmetry: A'    (Cs       )
  <S^2>      :  2.0000
  Dipole Moment:   -0.1950 X     0.8196 Y     0.0000 Z
  Trans. Moment:    0.0000 X    -0.0000 Y    -0.0000 Z
  Strength   :  0.000000
  Natural transition orbitals ( 1 -> 8 ):
   e-/hole pair  1:  ampl =  0.680451 ( 46.3%)   [8 : 9]
   e-/hole pair  2:  ampl =  0.588081 ( 34.6%)   [7 : 10]
   Sum of square amplitudes: 0.83

 NATURAL OCCUPATION NUMBERS (higher than 1.0E-05)
            1           2           3           4           5           6
    1   2.0000000   2.0000000   2.0000000   2.0000000   2.0000000   2.0000000
            7           8           9          10          11          12
    1   2.0000000   2.0000000   2.0000000   2.0000000   2.0000000   2.0000000
           13          14          15          16          17          18
    1   2.0000000   2.0000000   2.0000000   2.0000000   2.0000000   2.0000000
           19          20          21          22          23          24
[...]
 
 Alpha MOs, Restricted
 -- Doubly Occupied --           
-15.561 -11.285 -11.265 -11.255 -11.252 -11.250 -11.254 -11.246
  1 A'    2 A'    3 A'    4 A'    5 A'    6 A'    7 A'    8 A'                 
-11.251 -11.234  -1.251  -1.151  -1.092  -1.032  -1.016  -0.900
  9 A'   10 A'   11 A'   12 A'   13 A'   14 A'   15 A'   16 A'                 
 -0.849  -0.835  -0.736  -0.706  -0.690  -0.634  -0.627  -0.600
 17 A'   18 A'   19 A'   20 A'   21 A'   22 A'   23 A'   24 A'                 
 -0.577  -0.565  -0.530  -0.502  -0.417  -0.567  -0.482  -0.414
 25 A'   26 A'   27 A'   28 A'   29 A'    1 A"    2 A"    3 A"                 
 -0.365
  4 A"                                                                         
 -- Singly Occupied (Occupied) --
 -0.397  -0.240
  5 A"    6 A"                                                                 
 -- Virtual --                   
  0.108   0.113   0.152   0.163   0.174   0.189   0.197   0.204
  7 A"    8 A"   30 A'   31 A'   32 A'   33 A'   34 A'   35 A'                 
  0.213   0.207   0.230   0.266   0.288   0.295   0.300   0.311
 36 A'    9 A"   37 A'   38 A'   39 A'   10 A"   40 A'   41 A'                 
  0.321   0.328   0.349   0.351   0.360   0.376   0.375   0.397
 42 A'   11 A"   12 A"   43 A'   44 A'   45 A'   13 A"   14 A"                 
  0.405   0.421   0.420   0.442   0.456   0.453   0.459   0.475
 46 A'   47 A'   15 A"   48 A'   49 A'   16 A"   50 A'   51 A'                 
  0.490   0.500   0.503   0.504   0.525   0.533   0.557   0.561
 52 A'   53 A'   17 A"   18 A"   54 A'   55 A'   56 A'   57 A'                 
  0.574   0.574   0.581   0.581   0.604   0.619   0.626   0.636
 58 A'   19 A"   59 A'   60 A'   61 A'   62 A'   63 A'   20 A"                 
  0.642   0.652   0.669   0.684   0.692   0.706   0.716   0.733
 64 A'   65 A'   66 A'   21 A"   67 A'   68 A'   69 A'   22 A"                 
  0.746   0.778   0.791   0.827   0.844   0.845   0.860   0.857
 70 A'   71 A'   72 A'   73 A'   74 A'   75 A'   76 A'   23 A"                 
  0.865   0.875   0.893   0.904   0.916   0.921   0.948   0.965
 77 A'   78 A'   79 A'   24 A"   80 A'   25 A"   81 A'   26 A"                 
  0.980   0.991   1.005   1.019   1.035   1.062   1.088   1.086
 82 A'   83 A'   27 A"   84 A'   85 A'   86 A'   87 A'   28 A"                 
  1.098   1.123   1.152   1.171   1.199   1.196   1.231   1.238
 29 A"   88 A'   89 A'   90 A'   91 A'   30 A"   92 A'   31 A"                 
  1.294   1.325   1.335   1.344   1.365   1.387   1.412   1.425
 93 A'   32 A"   94 A'   33 A"   95 A'   96 A'   97 A'   34 A"                 
  1.431   1.445   1.445   1.465   1.497   1.509   1.529   1.533
 98 A'   99 A'   35 A"  100 A'  101 A'  102 A'   36 A"  103 A'                 
  1.555   1.577   1.612   1.628   1.669   1.679   1.706   1.700
 37 A"  104 A'  105 A'  106 A'   38 A"  107 A'  108 A'   39 A"                 
  1.718   1.733   1.752   1.763   1.766   1.797   1.812   1.824
109 A'  110 A'   40 A"  111 A'   41 A"  112 A'   42 A"  113 A'                 
  1.834   1.858   1.878   1.893   1.901   1.941   1.948   1.968
114 A'  115 A'   43 A"   44 A"  116 A'  117 A'   45 A"  118 A'                 
  1.979   1.987   2.011   2.015   2.030   2.059   2.072   2.093
 46 A"  119 A'   47 A"  120 A'   48 A"  121 A'  122 A'   49 A"                 
  2.125   2.148   2.209   2.212   2.233   2.260   2.264   2.287
 50 A"   51 A"  123 A'   52 A"  124 A'   53 A"  125 A'   54 A"                 
  2.303   2.338   2.343   2.396   2.426   2.437   2.448   2.454
126 A'  127 A'  128 A'  129 A'  130 A'  131 A'  132 A'   55 A"                 
  2.476   2.511   2.540   2.544   2.577   2.579   2.617   2.643
133 A'  134 A'  135 A'  136 A'   56 A"  137 A'  138 A'   57 A"                 
  2.668   2.721   2.740   2.757   2.792   2.797   2.816   2.838
139 A'  140 A'   58 A"  141 A'  142 A'   59 A"  143 A'  144 A'                 
  2.868   2.885   2.901   2.914   2.920   2.950   2.952   2.969
145 A'  146 A'  147 A'   60 A"  148 A'  149 A'   61 A"  150 A'                 
  2.973   2.979   3.005   3.023   3.038   3.047   3.052   3.071
 62 A"  151 A'   63 A"  152 A'  153 A'   64 A"  154 A'   65 A"                 
  3.080   3.102   3.113   3.132   3.130   3.162   3.165   3.176
155 A'  156 A'   66 A"  157 A'   67 A"  158 A'   68 A"  159 A'                 
  3.204   3.215   3.223   3.222   3.255   3.286   3.288   3.303
160 A'  161 A'  162 A'   69 A"   70 A"   71 A"  163 A'  164 A'                 
  3.324   3.329   3.362   3.365   3.398   3.402   3.417   3.418
165 A'   72 A"  166 A'   73 A"  167 A'   74 A"   75 A"  168 A'                 
  3.446   3.449   3.471   3.481   3.510   3.515   3.517   3.560
 76 A"  169 A'  170 A'   77 A"   78 A"  171 A'   79 A"  172 A'                 
  3.569   3.583   3.592   3.609   3.611   3.610   3.619   3.646
 80 A"  173 A'  174 A'  175 A'  176 A'   81 A"   82 A"  177 A'                 
  3.659   3.677   3.692   3.696   3.715   3.731   3.751   3.775
 83 A"  178 A'  179 A'   84 A"  180 A'   85 A"  181 A'  182 A'                 
  3.776   3.809   3.829   3.832   3.849   3.853   3.877   3.899
 86 A"  183 A'  184 A'   87 A"   88 A"  185 A'   89 A"  186 A'                 
  3.927   3.942   3.966   4.007   4.049   4.068   4.088   4.114
187 A'   90 A"  188 A'  189 A'  190 A'   91 A"  191 A'  192 A'                 
  4.162   4.164   4.187   4.200   4.221   4.266   4.300   4.319
193 A'   92 A"  194 A'   93 A"  195 A'  196 A'  197 A'  198 A'                 
  4.383   4.391   4.399   4.428   4.444   4.455   4.472   4.527
199 A'  200 A'   94 A"   95 A"  201 A'  202 A'   96 A"  203 A'                 
  4.543   4.549   4.554   4.586   4.593   4.629   4.652   4.670
204 A'   97 A"  205 A'  206 A'   98 A"  207 A'  208 A'   99 A"                 
  4.725   4.772   4.810   4.810   4.913   4.932   4.945   4.957
100 A"  209 A'  210 A'  101 A"  102 A"  211 A'  212 A'  213 A'                 
  5.033   5.056   5.117   5.148   5.184   5.236   5.263   5.300
103 A"  214 A'  215 A'  216 A'  217 A'  218 A'  219 A'  220 A'                 
  5.318   5.355   5.373   5.468   5.496   5.554   5.585   5.599
104 A"  105 A"  221 A'  222 A'  223 A'  224 A'  225 A'  106 A"                 
  5.638   5.702   5.711   5.812   5.831   5.925   6.042   6.164
226 A'  107 A"  227 A'  228 A'  229 A'  230 A'  231 A'  232 A'                 
  6.176   6.282   6.639  23.250  23.501  23.611  23.717  23.840
233 A'  234 A'  235 A'  236 A'  237 A'  238 A'  239 A'  240 A'                 
 23.905  23.919  24.023  24.517  33.848
241 A'  242 A'  243 A'  244 A'  245 A'                                         
 
 Beta MOs, Restricted
 -- Doubly Occupied --           
-15.561 -11.285 -11.265 -11.255 -11.252 -11.250 -11.254 -11.246
  1 A'    2 A'    3 A'    4 A'    5 A'    6 A'    7 A'    8 A'                 
-11.251 -11.234  -1.251  -1.151  -1.092  -1.032  -1.016  -0.900
  9 A'   10 A'   11 A'   12 A'   13 A'   14 A'   15 A'   16 A'                 
 -0.849  -0.835  -0.736  -0.706  -0.690  -0.634  -0.627  -0.600
 17 A'   18 A'   19 A'   20 A'   21 A'   22 A'   23 A'   24 A'                 
 -0.577  -0.565  -0.530  -0.502  -0.417  -0.567  -0.482  -0.414
 25 A'   26 A'   27 A'   28 A'   29 A'    1 A"    2 A"    3 A"                 
 -0.365
  4 A"                                                                         
 -- Singly Occupied (Vacant) --  
 -0.397  -0.240
  5 A"    6 A"                                                                 
 -- Virtual --                   
  0.108   0.113   0.152   0.163   0.174   0.189   0.197   0.204
  7 A"    8 A"   30 A'   31 A'   32 A'   33 A'   34 A'   35 A'                 
  0.213   0.207   0.230   0.266   0.288   0.295   0.300   0.311
 36 A'    9 A"   37 A'   38 A'   39 A'   10 A"   40 A'   41 A'                 
  0.321   0.328   0.349   0.351   0.360   0.376   0.375   0.397
 42 A'   11 A"   12 A"   43 A'   44 A'   45 A'   13 A"   14 A"                 
  0.405   0.421   0.420   0.442   0.456   0.453   0.459   0.475
 46 A'   47 A'   15 A"   48 A'   49 A'   16 A"   50 A'   51 A'                 
  0.490   0.500   0.503   0.504   0.525   0.533   0.557   0.561
 52 A'   53 A'   17 A"   18 A"   54 A'   55 A'   56 A'   57 A'                 
  0.574   0.574   0.581   0.581   0.604   0.619   0.626   0.636
 58 A'   19 A"   59 A'   60 A'   61 A'   62 A'   63 A'   20 A"                 
  0.642   0.652   0.669   0.684   0.692   0.706   0.716   0.733
 64 A'   65 A'   66 A'   21 A"   67 A'   68 A'   69 A'   22 A"                 
  0.746   0.778   0.791   0.827   0.844   0.845   0.860   0.857
 70 A'   71 A'   72 A'   73 A'   74 A'   75 A'   76 A'   23 A"                 
  0.865   0.875   0.893   0.904   0.916   0.921   0.948   0.965
 77 A'   78 A'   79 A'   24 A"   80 A'   25 A"   81 A'   26 A"                 
  0.980   0.991   1.005   1.019   1.035   1.062   1.088   1.086
 82 A'   83 A'   27 A"   84 A'   85 A'   86 A'   87 A'   28 A"                 
  1.098   1.123   1.152   1.171   1.199   1.196   1.231   1.238
 29 A"   88 A'   89 A'   90 A'   91 A'   30 A"   92 A'   31 A"                 
  1.294   1.325   1.335   1.344   1.365   1.387   1.412   1.425
 93 A'   32 A"   94 A'   33 A"   95 A'   96 A'   97 A'   34 A"                 
  1.431   1.445   1.445   1.465   1.497   1.509   1.529   1.533
 98 A'   99 A'   35 A"  100 A'  101 A'  102 A'   36 A"  103 A'                 
  1.555   1.577   1.612   1.628   1.669   1.679   1.706   1.700
 37 A"  104 A'  105 A'  106 A'   38 A"  107 A'  108 A'   39 A"                 
  1.718   1.733   1.752   1.763   1.766   1.797   1.812   1.824
109 A'  110 A'   40 A"  111 A'   41 A"  112 A'   42 A"  113 A'                 
  1.834   1.858   1.878   1.893   1.901   1.941   1.948   1.968
114 A'  115 A'   43 A"   44 A"  116 A'  117 A'   45 A"  118 A'                 
  1.979   1.987   2.011   2.015   2.030   2.059   2.072   2.093
 46 A"  119 A'   47 A"  120 A'   48 A"  121 A'  122 A'   49 A"                 
  2.125   2.148   2.209   2.212   2.233   2.260   2.264   2.287
 50 A"   51 A"  123 A'   52 A"  124 A'   53 A"  125 A'   54 A"                 
  2.303   2.338   2.343   2.396   2.426   2.437   2.448   2.454
126 A'  127 A'  128 A'  129 A'  130 A'  131 A'  132 A'   55 A"                 
  2.476   2.511   2.540   2.544   2.577   2.579   2.617   2.643
133 A'  134 A'  135 A'  136 A'   56 A"  137 A'  138 A'   57 A"                 
  2.668   2.721   2.740   2.757   2.792   2.797   2.816   2.838
139 A'  140 A'   58 A"  141 A'  142 A'   59 A"  143 A'  144 A'                 
  2.868   2.885   2.901   2.914   2.920   2.950   2.952   2.969
145 A'  146 A'  147 A'   60 A"  148 A'  149 A'   61 A"  150 A'                 
  2.973   2.979   3.005   3.023   3.038   3.047   3.052   3.071
 62 A"  151 A'   63 A"  152 A'  153 A'   64 A"  154 A'   65 A"                 
  3.080   3.102   3.113   3.132   3.130   3.162   3.165   3.176
155 A'  156 A'   66 A"  157 A'   67 A"  158 A'   68 A"  159 A'                 
  3.204   3.215   3.223   3.222   3.255   3.286   3.288   3.303
160 A'  161 A'  162 A'   69 A"   70 A"   71 A"  163 A'  164 A'                 
  3.324   3.329   3.362   3.365   3.398   3.402   3.417   3.418
165 A'   72 A"  166 A'   73 A"  167 A'   74 A"   75 A"  168 A'                 
  3.446   3.449   3.471   3.481   3.510   3.515   3.517   3.560
 76 A"  169 A'  170 A'   77 A"   78 A"  171 A'   79 A"  172 A'                 
  3.569   3.583   3.592   3.609   3.611   3.610   3.619   3.646
 80 A"  173 A'  174 A'  175 A'  176 A'   81 A"   82 A"  177 A'                 
  3.659   3.677   3.692   3.696   3.715   3.731   3.751   3.775
 83 A"  178 A'  179 A'   84 A"  180 A'   85 A"  181 A'  182 A'                 
  3.776   3.809   3.829   3.832   3.849   3.853   3.877   3.899
 86 A"  183 A'  184 A'   87 A"   88 A"  185 A'   89 A"  186 A'                 
  3.927   3.942   3.966   4.007   4.049   4.068   4.088   4.114
187 A'   90 A"  188 A'  189 A'  190 A'   91 A"  191 A'  192 A'                 
  4.162   4.164   4.187   4.200   4.221   4.266   4.300   4.319
193 A'   92 A"  194 A'   93 A"  195 A'  196 A'  197 A'  198 A'                 
  4.383   4.391   4.399   4.428   4.444   4.455   4.472   4.527
199 A'  200 A'   94 A"   95 A"  201 A'  202 A'   96 A"  203 A'                 
  4.543   4.549   4.554   4.586   4.593   4.629   4.652   4.670
204 A'   97 A"  205 A'  206 A'   98 A"  207 A'  208 A'   99 A"                 
  4.725   4.772   4.810   4.810   4.913   4.932   4.945   4.957
100 A"  209 A'  210 A'  101 A"  102 A"  211 A'  212 A'  213 A'                 
  5.033   5.056   5.117   5.148   5.184   5.236   5.263   5.300
103 A"  214 A'  215 A'  216 A'  217 A'  218 A'  219 A'  220 A'                 
  5.318   5.355   5.373   5.468   5.496   5.554   5.585   5.599
104 A"  105 A"  221 A'  222 A'  223 A'  224 A'  225 A'  106 A"                 
  5.638   5.702   5.711   5.812   5.831   5.925   6.042   6.164
226 A'  107 A"  227 A'  228 A'  229 A'  230 A'  231 A'  232 A'                 
  6.176   6.282   6.639  23.250  23.501  23.611  23.717  23.840
233 A'  234 A'  235 A'  236 A'  237 A'  238 A'  239 A'  240 A'                 
 23.905  23.919  24.023  24.517  33.848
241 A'  242 A'  243 A'  244 A'  245 A'                                         
 --------------------------------------------------------------
 
          Ground-State Mulliken Net Atomic Charges

     Atom                 Charge (a.u.)
  ----------------------------------------
      1 C                    -0.029935
      2 C                     0.342025
      3 C                    -0.127124
      4 C                    -0.146937
      5 C                    -0.095394
      6 C                    -0.238304
      7 N                    -0.352746
      8 C                    -0.170629
      9 C                    -0.131159
     10 C                     0.011574
     11 H                     0.134971
     12 H                     0.130503
     13 H                     0.127210
     14 H                     0.141617
     15 H                     0.130938
     16 H                     0.130819
     17 H                     0.142573
  ----------------------------------------
  Sum of atomic charges =     0.000000

  Do orbital-by-orbital Lowdin population analysis
 
 
 Partial Mulliken analysis unavailable for frozen orbitals
 
 -----------------------------------------------------------------
                    Cartesian Multipole Moments
 -----------------------------------------------------------------
    Charge (ESU x 10^10)
                 0.0000
    Dipole Moment (Debye)
         X       1.0015      Y      -2.0828      Z      -0.0000
       Tot       2.3111
    Quadrupole Moments (Debye-Ang)
        XX     -50.0813     XY       2.8344     YY     -55.2981
        XZ      -0.0000     YZ      -0.0000     ZZ     -63.5081
    Octopole Moments (Debye-Ang^2)
       XXX      -6.6194    XXY      -0.1654    XYY       8.1339
       YYY     -14.3141    XXZ      -0.0000    XYZ      -0.0000
       YYZ      -0.0000    XZZ      -0.9267    YZZ       1.7073
       ZZZ      -0.0000
    Hexadecapole Moments (Debye-Ang^3)
      XXXX   -1077.8959   XXXY      -6.7361   XXYY    -254.7494
      XYYY      19.8469   YYYY    -484.7221   XXXZ       0.0000
      XXYZ       0.0000   XYYZ       0.0000   YYYZ      -0.0000
      XXZZ    -242.8018   XYZZ      -1.6524   YYZZ    -105.5474
      XZZZ       0.0000   YZZZ      -0.0000   ZZZZ     -74.3673
 -----------------------------------------------------------------
 Mayer SCF Bond Order, atomic valence on the diagonal:

            1           2           3           4           5           6
    1   3.8863454   1.1691779   1.1197844   0.0148739  -0.0051711   0.0431857
    2   1.1691779   3.9045064  -0.0487406   0.0067568  -0.0446690   1.1765071
    3   1.1197844  -0.0487406   3.2079477   1.0170757   0.0578698  -0.0121233
    4   0.0148739   0.0067568   1.0170757   3.9681761   1.8761518   0.0703661
    5  -0.0051711  -0.0446690   0.0578698   1.8761518   3.8731522   1.0064839
    6   0.0431857   1.1765071  -0.0121233   0.0703661   1.0064839   3.3478221
    7  -0.0313862   1.5635436   0.0169874   0.0058369   0.0058901   0.0579759
    8   1.5349432   0.0007545   0.0562974   0.0025189   0.0122022   0.0105480
    9   0.0353964   0.0297919   0.0003411   0.0070583  -0.0027683   0.0277726
   10   0.0218967   0.0241785   0.0326598  -0.0044326   0.0100975  -0.0021988
   11  -0.0169565   0.0061108   0.0039423   0.0002712  -0.0001560   0.0008647
   12   0.0052890   0.0021685   0.0005583   0.0002030   0.0001555   0.0001953
   13  -0.0006407   0.0053329   0.0009924  -0.0002956   0.0004123   0.0002254
   14  -0.0186583   0.0065778   0.9748949  -0.0105452   0.0047887  -0.0002045
   15   0.0050642   0.0003540  -0.0204325   0.9816497  -0.0026339   0.0071159
   16  -0.0001395   0.0049630   0.0074772  -0.0041875   0.9825582  -0.0194160
   17   0.0096862   0.0016987   0.0003635   0.0048747  -0.0280594   0.9805238
            7           8           9          10          11          12
    1  -0.0313862   1.5349432   0.0353964   0.0218967  -0.0169565   0.0052890
    2   1.5635436   0.0007545   0.0297919   0.0241785   0.0061108   0.0021685
    3   0.0169874   0.0562974   0.0003411   0.0326598   0.0039423   0.0005583
    4   0.0058369   0.0025189   0.0070583  -0.0044326   0.0002712   0.0002030
    5   0.0058901   0.0122022  -0.0027683   0.0100975  -0.0001560   0.0001555
    6   0.0579759   0.0105480   0.0277726  -0.0021988   0.0008647   0.0001953
    7   2.9404809   0.0391378  -0.0241651   1.2846162   0.0005963   0.0062284
    8   0.0391378   3.9537154   1.2660236   0.0598745   0.9732199  -0.0167343
    9  -0.0241651   1.2660236   3.8630145   1.5838426  -0.0077386   0.9731586
   10   1.2846162   0.0598745   1.5838426   4.0085751   0.0046922  -0.0025608
   11   0.0005963   0.9732199  -0.0077386   0.0046922   0.9678468  -0.0000569
   12   0.0062284  -0.0167343   0.9731586  -0.0025608  -0.0000569   0.9689001
   13  -0.0073259   0.0071319  -0.0265534   0.9948851   0.0005525   0.0001444
   14   0.0004621   0.0061512  -0.0001625   0.0001553   0.0021687  -0.0000081
   15   0.0001292   0.0004212   0.0001734  -0.0000113   0.0000013   0.0000358
   16   0.0005697   0.0002225  -0.0000233   0.0002802  -0.0000075   0.0000089
   17   0.0213844   0.0010028   0.0008668   0.0005999   0.0003422   0.0001145
           13          14          15          16          17
    1  -0.0006407  -0.0186583   0.0050642  -0.0001395   0.0096862
    2   0.0053329   0.0065778   0.0003540   0.0049630   0.0016987
    3   0.0009924   0.9748949  -0.0204325   0.0074772   0.0003635
    4  -0.0002956  -0.0105452   0.9816497  -0.0041875   0.0048747
    5   0.0004123   0.0047887  -0.0026339   0.9825582  -0.0280594
    6   0.0002254  -0.0002045   0.0071159  -0.0194160   0.9805238
    7  -0.0073259   0.0004621   0.0001292   0.0005697   0.0213844
    8   0.0071319   0.0061512   0.0004212   0.0002225   0.0010028
    9  -0.0265534  -0.0001625   0.0001734  -0.0000233   0.0008668
   10   0.9948851   0.0001553  -0.0000113   0.0002802   0.0005999
   11   0.0005525   0.0021687   0.0000013  -0.0000075   0.0003422
   12   0.0001444  -0.0000081   0.0000358   0.0000089   0.0001145
   13   0.9750714   0.0000476   0.0000000   0.0000088   0.0001534
   14   0.0000476   0.9660948  -0.0002798   0.0007254  -0.0000185
   15   0.0000000  -0.0002798   0.9719366  -0.0001241   0.0004734
   16   0.0000088   0.0007254  -0.0001241   0.9724618  -0.0004541
   17   0.0001534  -0.0000185   0.0004734  -0.0004541   0.9935524


 Total job time:  274346.68s(wall), 232536.96s(cpu) 
 Mon Sep 25 21:55:38 2023

        *************************************************************
        *                                                           *
        *  Thank you very much for using Q-Chem.  Have a nice day.  *
        *                                                           *
        *************************************************************


