                  Welcome to Q-Chem
     A Quantum Leap Into The Future Of Chemistry


 Q-Chem 6.0 (devel), Q-Chem, Inc., Pleasanton, CA (2022)

 E. Epifanovsky,  A. T. B. Gilbert,  Xintian Feng,  Joonho Lee,  Yuezhi Mao,  
 N. Mardirossian,  P. Pokhilko,  A. White,  M. Wormit,  M. P. Coons,  
 A. L. Dempwolff,  Zhengting Gan,  D. Hait,  P. R. Horn,  L. D. Jacobson,  
 I. Kaliman,  J. Kussmann,  A. W. Lange,  Ka Un Lao,  D. S. Levine,  Jie Liu,  
 S. C. McKenzie,  A. F. Morrison,  K. Nanda,  F. Plasser,  D. R. Rehn,  
 M. L. Vidal,  Zhi-Qiang You,  Ying Zhu,  B. Alam,  B. Albrecht,  
 A. Aldossary,  E. Alguire,  J. H. Andersen,  V. Athavale,  D. Barton,  
 K. Begam,  A. Behn,  N. Bellonzi,  Y. A. Bernard,  E. J. Berquist,  
 H. Burton,  A. Carreras,  K. Carter-Fenk,  Romit Chakraborty,  
 Chandrima Chakravarty,  Junhan Chen,  A. D. Chien,  K. D. Closser,  
 V. Cofer-Shabica,  L. Cunha,  S. Dasgupta,  Jia Deng,  M. de Wergifosse,  
 M. Diedenhofen,  Hainam Do,  S. Ehlert,  Po-Tung Fang,  S. Fatehi,  
 Qingguo Feng,  T. Friedhoff,  B. Ganoe,  J. Gayvert,  Qinghui Ge,  
 G. Gidofalvi,  M. Goldey,  J. Gomes,  C. Gonzalez-Espinoza,  S. Gulania,  
 A. Gunina,  J. A. Gyamfi,  M. W. D. Hanson-Heine,  P. H. P. Harbach,  
 A. W. Hauser,  M. F. Herbst,  M. Hernandez Vera,  M. Hodecker,  
 Z. C. Holden,  S. Houck,  Xunkun Huang,  Kerwin Hui,  B. C. Huynh,  
 K. Ikeda,  M. Ivanov,  Hyunjun Ji,  Zuxin Jin,  Hanjie Jiang,  B. Kaduk,  
 S. Kaehler,  R. Kang,  K. Khistyaev,  Jaehoon Kim,  Yongbin Kim,  
 P. Klunzinger,  Z. Koczor-Benda,  Joong Hoon Koh,  D. Kosenkov,  
 Saikiran Kotaru,  L. Koulias,  T. Kowalczyk,  C. M. Krauter,  K. Kue,  
 A. Kunitsa,  T. Kus,  A. Landau,  K. V. Lawler,  D. Lefrancois,  S. Lehtola,  
 Rain Li,  Shaozhi Li,  Yi-Pei Li,  Jiashu Liang,  M. Liebenthal,  
 Hung-Hsuan Lin,  You-Sheng Lin,  Fenglai Liu,  Kuan-Yu Liu,  
 M. Loipersberger,  A. Luenser,  C. Malbon,  A. Manjanath,  P. Manohar,  
 E. Mansoor,  S. F. Manzer,  Shan-Ping Mao,  A. V. Marenich,  T. Markovich,  
 S. Mason,  F. Matz,  S. A. Maurer,  P. F. McLaughlin,  M. F. S. J. Menger,  
 J.-M. Mewes,  S. A. Mewes,  P. Morgante,  Mohammad Mostafanejad,  
 J. W. Mullinax,  K. J. Oosterbaan,  G. Paran,  V. Parravicini,  
 Alexander C. Paul,  Suranjan K. Paul,  F. Pavosevic,  Zheng Pei,  S. Prager,  
 E. I. Proynov,  E. Ramos,  B. Rana,  A. E. Rask,  A. Rettig,  R. M. Richard,  
 F. Rob,  E. Rossomme,  T. Scheele,  M. Scheurer,  M. Schneider,  
 P. E. Schneider,  N. Sergueev,  S. M. Sharada,  Hengyuan Shen,  
 W. Skomorowski,  D. W. Small,  C. J. Stein,  Yingli Su,  Yu-Chuan Su,  
 E. J. Sundstrom,  Zhen Tao,  J. Thirman,  Hung-Yi Tsai,  T. Tsuchimochi,  
 N. M. Tubman,  C. Utku,  S. P. Veccham,  O. Vydrov,  J. Wenzel,  
 Jonathan Wong,  J. Witte,  A. Yamada,  Chou-Hsun Yang,  Kun Yao,  
 S. Yeganeh,  S. R. Yost,  A. Zech,  F. Zeller,  Igor Ying Zhang,  
 Xing Zhang,  Yu Zhang,  D. Zuev,  A. Aspuru-Guzik,  A. T. Bell,  
 N. A. Besley,  K. B. Bravaya,  B. R. Brooks,  D. Casanova,  Jeng-Da Chai,  
 Hsing-Ta Chen,  S. Coriani,  C. J. Cramer,  A. E. DePrince, III,  
 R. A. DiStasio Jr.,  A. Dreuw,  B. D. Dunietz,  T. R. Furlani,  
 W. A. Goddard III,  S. Grimme,  S. Hammes-Schiffer,  T. Head-Gordon,  
 W. J. Hehre,  Chao-Ping Hsu,  T.-C. Jagau,  Yousung Jung,  A. Klamt,  
 Jing Kong,  D. S. Lambrecht,  Xiangyuan Li,  WanZhen Liang,  N. J. Mayhall,  
 C. W. McCurdy,  J. B. Neaton,  T. Neudecker,  C. Ochsenfeld,  
 J. A. Parkhill,  R. Peverati,  V. A. Rassolov,  Haisheng Ren,  Yihan Shao,  
 L. V. Slipchenko,  R. P. Steele,  J. E. Subotnik,  A. J. W. Thom,  
 A. Tkatchenko,  D. G. Truhlar,  T. Van Voorhis,  Fan Wang,  
 T. A. Wesolowski,  K. B. Whaley,  H. L. Woodcock III,  P. M. Zimmerman,  
 S. Faraji,  P. M. W. Gill,  M. Head-Gordon,  J. M. Herbert,  A. I. Krylov

 Contributors to earlier versions of Q-Chem not listed above: 
 R. D. Adamson,  B. Austin,  R. Baer,  J. Baker,  G. J. O. Beran,  
 K. Brandhorst,  S. T. Brown,  E. F. C. Byrd,  Arup K. Chakraborty,  
 G. K. L. Chan,  Chun-Min Chang,  Yunqing Chen,  C.-L. Cheng,  
 Siu Hung Chien,  D. M. Chipman,  D. L. Crittenden,  H. Dachsel,  
 R. J. Doerksen,  A. D. Dutoi,  R. G. Edgar,  J. Fosso-Tande,  
 L. Fusti-Molnar,  D. Ghosh,  A. Ghysels,  A. Golubeva-Zadorozhnaya,  
 J. Gonthier,  M. S. Gordon,  S. R. Gwaltney,  G. Hawkins,  J. E. Herr,  
 A. Heyden,  S. Hirata,  E. G. Hohenstein,  G. Kedziora,  F. J. Keil,  
 C. Kelley,  Jihan Kim,  R. A. King,  R. Z. Khaliullin,  P. P. Korambath,  
 W. Kurlancheek,  A. Laurent,  A. M. Lee,  M. S. Lee,  S. V. Levchenko,  
 Ching Yeh Lin,  D. Liotard,  E. Livshits,  R. C. Lochan,  I. Lotan,  
 L. A. Martinez-Martinez,  P. E. Maslen,  N. Nair,  D. P. O'Neill,  
 D. Neuhauser,  E. Neuscamman,  C. M. Oana,  R. Olivares-Amaya,  R. Olson,  
 T. M. Perrine,  B. Peters,  P. A. Pieniazek,  A. Prociuk,  Y. M. Rhee,  
 J. Ritchie,  M. A. Rohrdanz,  E. Rosta,  N. J. Russ,  H. F. Schaefer III,  
 M. W. Schmidt,  N. E. Schultz,  S. Sharma,  N. Shenvi,  C. D. Sherrill,  
 A. C. Simmonett,  A. Sodt,  T. Stein,  D. Stuck,  K. S. Thanthiriwatte,  
 V. Vanovschi,  L. Vogt,  Tao Wang,  A. Warshel,  M. A. Watson,  
 C. F. Williams,  Q. Wu,  X. Xu,  Jun Yang,  W. Zhang,  Yan Zhao

   Please cite Q-Chem as follows:
  "Software for the frontiers of quantum chemistry:
   An overview of developments in the Q-Chem 5 package"
   J. Chem. Phys. 155, 084801 (2021)
   https://doi.org/10.1063/5.0055522 (open access)

 Q-Chem 6.0.1 for Intel X86 EM64T Linux

 Parts of Q-Chem use Armadillo 9.900.5 (Nocturnal Misbehaviour).
 http://arma.sourceforge.net/

 Q-Chem begins on Mon Oct  2 11:10:27 2023  

 Host: atlas-136
0

     Scratch files written to ./qchem65031//
 Processing $rem in /scratch/abel/SOFTWARE/qchem/config/preferences:
 Processing $rem in /dipc/acebg/.qchemrc:

 Checking the input file for inconsistencies... 	...done.

--------------------------------------------------------------
User input:
--------------------------------------------------------------
$comment
 RAS-SF CALCULATION
$end

$molecule
 READ s2.molecule
$end

$rem
!**CALCULATION TYPE***     
JOBTYPE            sp    
EXCHANGE           HF
CORRELATION        RASCI    !RASCI=Casanova; RASCI2=Zimmerman
BASIS              def2-TZVP

!***SCF REFERENCE***
!SKIP_SCFMAN        FALSE
UNRESTRICTED       FALSE
!SCF_GUESS          core
!SCF_GUESS_MIX      FALSE
!SCF_GUESS_ALWAYS   FALSE
MAX_SCF_CYCLES     500
!SCF_CONVERGENCE    8
!SCF_ALGORITHM      DIIS !DIIS,DM,DIIS_DM,GDM,DIIS_GDM,GD

!SYMMETRY           TRUE !use of symmetry for calculating integrals
!SYM_IGNORE         FALSE !turn off using symmetry
!SYM_TOL            5 !tolerance for determining point group

!THRESH             14
SCF_FINAL_PRINT     1 !0,1,2,3

!****RAS-SF****
RAS_ROOTS          20       !number of RAS-CI roots to be computed
SET_ITER           150      !number of iterations in RASCI
RAS_ELEC           10       !number of electrons in RAS2
!RAS_ELEC_ALPHA     6       !spin-α electrons in RAS2 
!RAS_ELEC_BETA      4       !spin-β electrons in RAS2

RAS_ACT            9       !number of orbitals in RAS2 
RAS_ACT_ORB   [12,13,14,15,16,17,18,19,20]  !user-selected RAS2 orbitals
RAS_OCC            11       !number of orbitals in RAS1
N_FROZEN_CORE      0     !Number of frozen core orbitals
N_FROZEN_VIRTUAL   44      !Number of frozen virtual orbitals

RAS_DO_HOLE        TRUE   !presence of hole excitations in RAS-CI wave function
RAS_DO_PART        TRUE   !presence of particle excitations
!RAS_AMPL_PRINT     10     !threshold (×10 2 ) for the CI amplitudes

!RAS_GUESS_CS       0      !number of closed shell guess conﬁgurations
RAS_SPIN_MULT      0      !spin multiplicity: 0=any, 2n+1=defined 
!RAS_SRDFT          FALSE  !short-range density functional RAS-CI
!RAS_NFRAG          0     !fragments of excitation analysis in RASCI

RAS_PRINT          2      !level of information
RAS_NATORB         TRUE   !computation of the natural orbital occupancies
!RAS_NATORB_STATE  0      !Saves NO of i RAS computed state in .fchk ﬁle
!RAS_FOD            TRUE

!****RAS-SOC****
CALC_SOC           TRUE   !calculate SOC for EOM-CC, RAS-CI, ADC, TDDFT/TDA and TDDFT
!RAS_SOC_2E        TRUE   !two-electron mean-ﬁeld contribution, default=true
RAS_SOC_SYM_DENS   TRUE   !averaging of α and β densities

!****MEMORY****
MEM_TOTAL          70000 !Default 2000 MB
MEM_STATIC         20000  !Default 64 MB

!**Molecular Properties and Analysis **                                                                                          
!GUI                2
STATE_ANALYSIS     TRUE
MOLDEN_FORMAT      TRUE
PRINT_ORBITALS     20
$end                                           

--------------------------------------------------------------
 ----------------------------------------------------------------
             Standard Nuclear Orientation (Angstroms)
    I     Atom           X                Y                Z
 ----------------------------------------------------------------
    1      S       0.0000000000     0.0000000000    -0.9446000000
    2      S       0.0000000000     0.0000000000     0.9446000000
 ----------------------------------------------------------------
 Molecular Point Group                 D2h   NOp =  8
 Largest Abelian Subgroup              D2h   NOp =  8
 Nuclear Repulsion Energy =          71.70726549 hartrees
 There are       17 alpha and       15 beta electrons
 Requested basis set is def2-TZVP
 There are 26 shells and 74 basis functions

 Q-Chem warning in module libmdc/get_mega.C, line 167:

 Allowed MEM_STATIC has been capped at MEM_STATIC=8191.
 Reduce the value of MEM_STATIC to silence this warning.


 Total QAlloc Memory Limit  70000 MB
 Mega-Array Size      8007 MB
 MEM_STATIC part      8191 MB


                       Distance Matrix (Angstroms)
             S (  1)
   S (  2)  1.889200
 
 A cutoff of  1.0D-09 yielded    340 shell pairs
 There are      2856 function pairs (      3719 Cartesian)
 Smallest overlap matrix eigenvalue = 2.69E-03

 Scale SEOQF with 1.000000e+00/1.000000e+00/1.000000e-01

 Standard Electronic Orientation quadrupole field applied
 Nucleus-field energy     =    -0.0000000031 hartrees
 Guess from superposition of atomic densities
 Warning:  Energy on first SCF cycle will be non-variational
 SAD guess density has 32.000000 electrons

 -----------------------------------------------------------------------
  General SCF calculation program by
  Eric Jon Sundstrom, Paul Horn, Yuezhi Mao, Dmitri Zuev, Alec White,
  David Stuck, Shaama M.S., Shane Yost, Joonho Lee, David Small,
  Daniel Levine, Susi Lehtola, Hugh Burton, Evgeny Epifanovsky,
  Bang C. Huynh
 -----------------------------------------------------------------------
 Hartree-Fock
 Orthonormalizing orbitals
 A restricted open-shell SCF calculation will be
 performed using GDM
 SCF converges when RMS gradient is below 1.0e-05
 ---------------------------------------
  Cycle       Energy        RMS Gradient
 ---------------------------------------
    1    -793.7053597670      6.51e-01   Descent step
    2    -794.0489509435      4.81e-01   Descent step
Fro norm of D 1.062147501679e+00
transformation scaled by 2
    3    -794.3102139756      9.71e-01   Descent step
    4    -794.7568999113      3.49e-01   Descent step
    5    -794.8643812965      1.45e-01   Dog-leg BFGS step
    6    -794.8902700485      1.03e-01   Dog-leg BFGS step
    7    -794.8773664089      1.33e-01  Line search: overstep
    8    -794.8988999392      1.81e-02   Normal BFGS step
    9    -794.8774942733      1.93e-01  Line search: overstep
   10    -794.8992747024      1.63e-02   Normal BFGS step
   11    -794.8997049912      5.55e-03   Normal BFGS step
   12    -794.8997605471      1.96e-03   Normal BFGS step
   13    -794.8997662397      9.59e-04   Normal BFGS step
   14    -794.8997675387      1.34e-04   Normal BFGS step
   15    -794.8997676178      6.12e-05   Normal BFGS step
   16    -794.8997676288      1.55e-05   Normal BFGS step
   17    -794.8997676462      2.67e-06  Convergence criterion met
The disked orbital energies are calculated using alpha and beta Focks
 ---------------------------------------
 Alpha HF Exchange    Energy = -25.53342409280631
 Beta HF Exchange     Energy = -24.51856594969809
 Nuclear Attraction   Energy =   0.00000000000000
 One-Electron (alpha) Energy = -633.78581269125243
 One-Electron (beta)  Energy = -607.52324567241658
 Total Coulomb        Energy = 424.75401527248960
 Final Alpha MO Eigenvalues
            1           2           3           4           5           6
    1 -92.0231710 -92.0231650  -9.0276342  -9.0272611  -6.7159199  -6.7022585
            7           8           9          10          11          12
    1  -6.7021955  -6.7148414  -6.7123322  -6.7122703  -1.1401493  -0.8698366
           13          14          15          16          17          18
    1  -0.5179851  -0.5435969  -0.3487190  -0.5778586  -0.3755889   0.1083931
           19          20          21          22          23          24
    1   0.2889580   0.3321071   0.3488722   0.3400051   0.4287300   0.4289547
           25          26          27          28          29          30
    1   0.4298801   0.4128493   0.4440191   0.4365941   0.4620112   0.5762490
           31          32          33          34          35          36
    1   0.5772164   0.7762909   0.7967807   0.8021439   0.8235751   1.0931586
           37          38          39          40          41          42
    1   1.5694247   1.5932671   1.6122244   1.6767178   1.6767222   1.7282084
           43          44          45          46          47          48
    1   1.7290183   1.7620998   1.7666575   1.7838197   1.8226527   1.8406273
           49          50          51          52          53          54
    1   1.8533192   1.8533635   1.9469569   1.9577960   1.9578089   1.9675619
           55          56          57          58          59          60
    1   1.9878191   2.0200108   2.0441249   2.0601050   2.0847608   2.1984887
           61          62          63          64          65          66
    1   2.2046015   2.2253605   2.7838603   2.8059071   2.8233822   3.0515673
           67          68          69          70          71          72
    1   9.4398707   9.4569205   9.5105255   9.5278245   9.6714750   9.8629852
           73          74
    1  18.3565000  19.4087380
 Final Beta MO Eigenvalues
            1           2           3           4           5           6
    1 -92.0136737 -92.0136658  -9.0171091  -9.0168781  -6.6921137  -6.6974919
            7           8           9          10          11          12
    1  -6.6974351  -6.6910969  -6.6892686  -6.6891820  -1.0273378  -0.7081313
           13          14          15          16          17          18
    1  -0.4885456  -0.4173812  -0.3109134  -0.1517197   0.0057643   0.1683235
           19          20          21          22          23          24
    1   0.3319181   0.3722869   0.3720470   0.4041743   0.4615343   0.4649815
           25          26          27          28          29          30
    1   0.4648858   0.5043479   0.4513235   0.4736064   0.4976434   0.6287158
           31          32          33          34          35          36
    1   0.6277779   0.8069046   0.8415305   0.8666758   0.8558776   1.1374625
           37          38          39          40          41          42
    1   1.6085151   1.6337183   1.6395743   1.7111322   1.7111350   1.7485666
           43          44          45          46          47          48
    1   1.7486496   1.7870429   1.7857221   1.8083538   1.8513558   1.8573982
           49          50          51          52          53          54
    1   1.8794587   1.8794291   1.9871149   1.9858181   1.9858720   1.9904920
           55          56          57          58          59          60
    1   2.0210261   2.0602098   2.0571996   2.1013207   2.0984408   2.2356247
           61          62          63          64          65          66
    1   2.2347649   2.2543238   2.8182034   2.8259478   2.8563006   3.0777198
           67          68          69          70          71          72
    1   9.4617526   9.4625717   9.5322159   9.5333264   9.6924522   9.8826541
           73          74
    1  18.3713273  19.4234623
 SCF time:   CPU 5.42s  wall 7.00s 
<S^2> =          2.000000000
 SCF   energy in the final basis set =     -794.8997676462
 Total energy in the final basis set =     -794.8997676462

 Q-Chem warning in module 0, line  204:

 Quadrupole field failed to resolve orbital degeneracies.


 Q-Chem warning in module 0, line  204:

 Quadrupole field failed to resolve orbital degeneracies.

  
     ##========================================##
     ||                                        ||
     ||              R A S M A N 2             ||
     ||________________________________________||
     ||                                        ||
     ||  Author:                               ||
     ||                                        ||
     ||        David Casanova (2010)           ||
     ||                                        ||
     ##========================================##
  
Setting single-point xc-functionals (if necessary)

  ***************************************************
  *  RAS-CI Dimensions:                             *
  *                                                 *
  *  Active Elec.:  10 ( 5, 5)   Active Orb.:   9   *
  *  Doubly Occ. :  11           Doubly Vir.:  54   *
  *  Frozen Occ. :   0           Frozen Vir.:  44   *
  *                                                 *
  *  Total CI configurations:    566244             * 
  *    Active configurations:     15876             * 
  *      Hole configurations:    232848             * 
  *  Particle configurations:    317520             * 
  *                                                 *
  *   Requested states:       20                    *
  *  Spin multiplicity: Any multiplicity            *
  *                                                 *
  ***************************************************
-----------------------------------------
    Memory requirements of RASCI

 Each CI-vector requires      4.32 MiB 
 Max. subspace vectors           3000      

 Reduced Lists                0.01 MiB 
 Excitation Lists             0.01 MiB 
 Excitation Lists Sign        0.01 MiB 
 CI-space (Max)           13115.39 MiB 
 Integrals                    7.42 MiB 
 Memory required (Max)    13115.41 MiB 
 Memory available          7811.55 MiB 

 Q-Chem warning in module rasman2/ras_mem_check.C, line 162:

 Static memory may be insufficient to store the subspace vectors


    Disk requirements of RASCI

 Fock matrix                  0.08 MiB 
 2-electron integrals         1.02 MiB 
 CI-space                 25920.59 MiB 
 Disk required            25921.69 MiB 
-----------------------------------------
  
RAS1 HF-like energy:           -774.8315673126
 Computing integrals
 Computing J and K matrices
 Computing addressing
 Making amplitude guesses
 
Direct CI diagonalization
 ---------------------------------------------------
 Iter    Rts Conv    Rts Left    Ttl Dev     Max Dev
 ---------------------------------------------------
   1         0          20      0.009641    0.000576
   2         0          20      0.004066    0.000269
   3         0          20      0.004127    0.000352
   4         0          20      0.006279    0.000482
   5         0          20      0.001752    0.000135
   6         0          20      0.001187    0.000107
   7         0          20      0.001117    0.000127
   8         0          20      0.001818    0.000200
   9         0          20      0.000591    0.000080
  10         0          20      0.000437    0.000078
  11         0          20      0.000623    0.000149
  12         0          20      0.000633    0.000158
  13         0          20      0.000301    0.000092
  14         1          19      0.000218    0.000078
  15         1          19      0.000371    0.000149
  16         3          17      0.000995    0.000808
  17         4          16      0.000351    0.000273
  18         4          16      0.000492    0.000226
  19         4          16      0.000565    0.000253
  20         6          14      0.000913    0.000439
  21         8          12      0.000517    0.000210
  22         8          12      0.000483    0.000173
  23         8          12      0.000583    0.000267
  24         9          11      0.000523    0.000243
  25        16           4      0.000307    0.000132
  26        16           4      0.000365    0.000150
  27        16           4      0.000563    0.000255
  28        17           3      0.000284    0.000129
  29        17           3      0.000256    0.000121
  30        17           3      0.000443    0.000193
  31        17           3      0.000634    0.000336
  32        17           3      0.000368    0.000181
  33        17           3      0.000329    0.000157
  34        17           3      0.000569    0.000289
  35        17           3      0.000563    0.000324
  36        17           3      0.000261    0.000146
  37        17           3      0.000230    0.000128
  38        17           3      0.000322    0.000188
  39        17           3      0.000286    0.000167
  40        17           3      0.000138    0.000079
  41        17           3      0.000126    0.000066
  42        17           3      0.000197    0.000113
  43        17           3      0.000149    0.000081
  44        17           3      0.000086    0.000041
  45        17           3      0.000081    0.000039
  46        17           3      0.000138    0.000070
  47        17           3      0.000092    0.000041
  48        17           3      0.000062    0.000026
  49        17           3      0.000087    0.000037
  50        17           3      0.000156    0.000077
  51        18           2      0.000119    0.000067
  52        17           3      0.000331    0.000234
  53        17           3      0.000413    0.000258
  54        17           3      0.000629    0.000370
  55        17           3      0.000262    0.000138
  56        18           2      0.000188    0.000086
  57        17           3      0.000406    0.000189
  58        18           2      0.000488    0.000203
  59        18           2      0.000230    0.000095
  60        18           2      0.000211    0.000094
  61        18           2      0.000373    0.000168
  62        18           2      0.000238    0.000090
  63        18           2      0.000148    0.000057
  64        18           2      0.000155    0.000062
  65        18           2      0.000275    0.000108
  66        18           2      0.000151    0.000051
  67        18           2      0.000100    0.000034
  68        18           2      0.000124    0.000044
  69        18           2      0.000191    0.000069
  70        18           2      0.000100    0.000035
  71        18           2      0.000076    0.000027
  72        18           2      0.000100    0.000037
  73        18           2      0.000133    0.000055
  74        18           2      0.000066    0.000027
  75        18           2      0.000051    0.000019
  76        18           2      0.000070    0.000029
  77        18           2      0.000083    0.000038
  78        18           2      0.000043    0.000018
  79        18           2      0.000037    0.000014
  80        18           2      0.000053    0.000022
  81        18           2      0.000049    0.000023
  82        18           2      0.000028    0.000010
  83        18           2      0.000027    0.000009
  84        18           2      0.000038    0.000016
  85        18           2      0.000031    0.000013
  86        18           2      0.000022    0.000007
  87        18           2      0.000023    0.000008
  88        18           2      0.000038    0.000018
  89        19           1      0.000028    0.000012
  90        19           1      0.000024    0.000010
  91        19           1      0.000028    0.000013
  92        19           1      0.000045    0.000027
  93        19           1      0.000027    0.000012
  94        19           1      0.000022    0.000009
  95        19           1      0.000024    0.000010
  96        19           1      0.000027    0.000013
  97        19           1      0.000018    0.000005
  98        19           1      0.000016    0.000003
  99        19           1      0.000017    0.000004
 100        19           1      0.000017    0.000004
 101        19           1      0.000014    0.000002
 102        19           1      0.000013    0.000001
 103        19           1      0.000013    0.000001
 104        19           1      0.000013    0.000001
 105        20           0      0.000012    0.000001    Roots Converged
 ---------------------------------------------------
   
**************************************************
 RAS-CI total energy for state   1:   -795.179630346021
  Excitation energy (eV) =  0.000000000000
  State symmetry: B1g   (D2h      )
  <S^2>      :  2.0000
  Dipole Moment:    0.0000 X     0.0000 Y     0.0000 Z
 NATURAL OCCUPATION NUMBERS (higher than 1.0E-05)
            1           2           3           4           5           6
    1   2.0000000   2.0000000   1.9999998   1.9999997   1.9999990   1.9999988
            7           8           9          10          11          12
    1   1.9999985   1.9999983   1.9999981   1.9999972   1.9981170   1.9788735
           13          14          15          16          17          18
    1   1.9606170   1.9591063   1.9552138   1.0219426   1.0207003   0.0328972
           19          20          21          22          23          24
    1   0.0148635   0.0126686   0.0110785   0.0065352   0.0057676   0.0051005
           25          26          27          28          29          30
    1   0.0041461   0.0031031   0.0028524   0.0025225   0.0023377   0.0015672
 Created directory ./qchem65031/plots

  Amplitudes : 
  
 | HOLE  | ALPHA     | BETA      | PART  |    AMPLITUDE 
--------------------------------------------------
 |       | 111110000 | 111011000 |       |     6.7403313430616E-01
 |       | 111011000 | 111110000 |       |    -6.7403313430572E-01
--------------------------------------------------
*** Contributions RASCI wfn    Active:  94.16
                                 Hole:   0.23
                                 Part:   5.61

      Mulliken population analysis 
 ---------------------------------------------------
   Atom    Charge (a.u.)   Spin (a.u.)  
 ---------------------------------------------------
   1  S    0.000000        0.000000 
   2  S    0.000000       -0.000000 
 ---------------------------------------------------
   Sum:    0.000000        0.000000 
 ---------------------------------------------------
 
  
 NATURAL OCCUPATION NUMBERS (higher than 1.0E-05)
            1           2           3           4           5           6
    1   2.0000000   2.0000000   1.9999998   1.9999997   1.9999990   1.9999988
            7           8           9          10          11          12
    1   1.9999985   1.9999983   1.9999981   1.9999972   1.9981170   1.9788735
           13          14          15          16          17          18
    1   1.9606170   1.9591063   1.9552138   1.0219426   1.0207003   0.0328972
           19          20          21          22          23          24
    1   0.0148635   0.0126686   0.0110785   0.0065352   0.0057676   0.0051005
           25          26          27          28          29          30
    1   0.0041461   0.0031031   0.0028524   0.0025225   0.0023377   0.0015672
  
*** Unpaired Electrons
 Yamaguchi Nd:         2.50
 Head-Gordon Nu:       2.21
 Head-Gordon Nu_nl:    2.03
  
**************************************************
 RAS-CI total energy for state   2:   -795.156225249732
  Excitation energy (eV) =  0.636885073706
  State symmetry: B1g   (D2h      )
  <S^2>      :  0.0000
  Dipole Moment:    0.0000 X     0.0000 Y     0.0000 Z
  Trans. Moment:   -0.0000 X     0.0000 Y     0.0000 Z
  Strength   :  0.000000
  Natural transition orbitals ( 1 -> 2 ):
   e-/hole pair  1:  ampl =  0.672400 ( 45.2%)   [9 : 10]
   e-/hole pair  2:  ampl =  0.671629 ( 45.1%)   [8 : 11]
   Sum of square amplitudes: 0.91

 NATURAL OCCUPATION NUMBERS (higher than 1.0E-05)
            1           2           3           4           5           6
    1   2.0000000   2.0000000   1.9999998   1.9999997   1.9999992   1.9999989
            7           8           9          10          11          12
    1   1.9999985   1.9999985   1.9999981   1.9999974   1.9982204   1.9777352
           13          14          15          16          17          18
    1   1.9614773   1.9468312   1.9429504   1.0363685   1.0351070   0.0305589
           19          20          21          22          23          24
    1   0.0140605   0.0124731   0.0093623   0.0071002   0.0062376   0.0049873
           25          26          27          28          29          30
    1   0.0048204   0.0027680   0.0026467   0.0024737   0.0024214   0.0014099

  Amplitudes : 
  
 | HOLE  | ALPHA     | BETA      | PART  |    AMPLITUDE 
--------------------------------------------------
 |       | 111110000 | 111011000 |       |     6.7005496576526E-01
 |       | 111011000 | 111110000 |       |     6.7005496576570E-01
 |       | 110111000 | 101111000 |       |     1.1519800966041E-01
 |       | 101111000 | 110111000 |       |     1.1519800966046E-01
--------------------------------------------------
*** Contributions RASCI wfn    Active:  94.46
                                 Hole:   0.22
                                 Part:   5.33

      Mulliken population analysis 
 ---------------------------------------------------
   Atom    Charge (a.u.)   Spin (a.u.)  
 ---------------------------------------------------
   1  S    0.000000       -0.000000 
   2  S    0.000000        0.000000 
 ---------------------------------------------------
   Sum:    0.000000        0.000000 
 ---------------------------------------------------
 
  
 NATURAL OCCUPATION NUMBERS (higher than 1.0E-05)
            1           2           3           4           5           6
    1   2.0000000   2.0000000   1.9999998   1.9999997   1.9999992   1.9999989
            7           8           9          10          11          12
    1   1.9999985   1.9999985   1.9999981   1.9999974   1.9982204   1.9777352
           13          14          15          16          17          18
    1   1.9614773   1.9468312   1.9429504   1.0363685   1.0351070   0.0305589
           19          20          21          22          23          24
    1   0.0140605   0.0124731   0.0093623   0.0071002   0.0062376   0.0049873
           25          26          27          28          29          30
    1   0.0048204   0.0027680   0.0026467   0.0024737   0.0024214   0.0014099
  
*** Unpaired Electrons
 Yamaguchi Nd:         2.54
 Head-Gordon Nu:       2.20
 Head-Gordon Nu_nl:    2.03
  
**************************************************
 RAS-CI total energy for state   3:   -795.148889846053
  Excitation energy (eV) =  0.836491563481
  State symmetry: Ag    (D2h      )
  <S^2>      :  0.0000
  Dipole Moment:    0.0000 X    -0.0000 Y    -0.0000 Z
  Trans. Moment:    0.0000 X    -0.0000 Y    -0.0000 Z
  Strength   :  0.000000
  Natural transition orbitals ( 1 -> 3 ):
   e-/hole pair  1:  ampl =  0.711317 ( 50.6%)   [9 : 10]
   e-/hole pair  2:  ampl =  0.629198 ( 39.6%)   [8 : 11]
   Sum of square amplitudes: 0.91

 NATURAL OCCUPATION NUMBERS (higher than 1.0E-05)
            1           2           3           4           5           6
    1   2.0000000   2.0000000   1.9999998   1.9999997   1.9999992   1.9999989
            7           8           9          10          11          12
    1   1.9999985   1.9999985   1.9999979   1.9999973   1.9981935   1.9822577
           13          14          15          16          17          18
    1   1.9611703   1.9498739   1.9355793   1.1538348   0.9219685   0.0309994
           19          20          21          22          23          24
    1   0.0139869   0.0127843   0.0096209   0.0056677   0.0052211   0.0046398
           25          26          27          28          29          30
    1   0.0028584   0.0025896   0.0025747   0.0025026   0.0022338   0.0014528

  Amplitudes : 
  
 | HOLE  | ALPHA     | BETA      | PART  |    AMPLITUDE 
--------------------------------------------------
 |       | 111110000 | 111110000 |       |     7.1190891997369E-01
 |       | 111011000 | 111011000 |       |    -6.2769178818203E-01
 |       | 110111000 | 110111000 |       |    -1.2707277452490E-01
 |       | 101111000 | 101111000 |       |     1.1026762623082E-01
--------------------------------------------------
*** Contributions RASCI wfn    Active:  94.97
                                 Hole:   0.22
                                 Part:   4.81

      Mulliken population analysis 
 ---------------------------------------------------
   Atom    Charge (a.u.)   Spin (a.u.)  
 ---------------------------------------------------
   1  S    0.000000        0.000000 
   2  S    0.000000       -0.000000 
 ---------------------------------------------------
   Sum:    0.000000       -0.000000 
 ---------------------------------------------------
 
  
 NATURAL OCCUPATION NUMBERS (higher than 1.0E-05)
            1           2           3           4           5           6
    1   2.0000000   2.0000000   1.9999998   1.9999997   1.9999992   1.9999989
            7           8           9          10          11          12
    1   1.9999985   1.9999985   1.9999979   1.9999973   1.9981935   1.9822577
           13          14          15          16          17          18
    1   1.9611703   1.9498739   1.9355793   1.1538348   0.9219685   0.0309994
           19          20          21          22          23          24
    1   0.0139869   0.0127843   0.0096209   0.0056677   0.0052211   0.0046398
           25          26          27          28          29          30
    1   0.0028584   0.0025896   0.0025747   0.0025026   0.0022338   0.0014528
  
*** Unpaired Electrons
 Yamaguchi Nd:         2.50
 Head-Gordon Nu:       2.04
 Head-Gordon Nu_nl:    1.98
  
**************************************************
 RAS-CI total energy for state   4:   -795.134591876355
  Excitation energy (eV) =  1.225559114100
  State symmetry: Ag    (D2h      )
  <S^2>      :  0.0000
  Dipole Moment:   -0.0000 X    -0.0000 Y    -0.0000 Z
  Trans. Moment:   -0.0000 X     0.0000 Y     0.0000 Z
  Strength   :  0.000000
  Natural transition orbitals ( 1 -> 4 ):
   e-/hole pair  1:  ampl =  0.700935 ( 49.1%)   [9 : 10]
   e-/hole pair  2:  ampl =  0.618638 ( 38.3%)   [8 : 11]
   Sum of square amplitudes: 0.88

 NATURAL OCCUPATION NUMBERS (higher than 1.0E-05)
            1           2           3           4           5           6
    1   2.0000000   2.0000000   1.9999998   1.9999995   1.9999991   1.9999988
            7           8           9          10          11          12
    1   1.9999987   1.9999984   1.9999982   1.9999973   1.9966550   1.9727363
           13          14          15          16          17          18
    1   1.9529581   1.9313914   1.9210241   1.1779605   0.9516583   0.0319068
           19          20          21          22          23          24
    1   0.0143626   0.0123543   0.0089071   0.0054080   0.0049830   0.0041364
           25          26          27          28          29          30
    1   0.0028885   0.0028455   0.0025610   0.0021872   0.0017556   0.0013304

  Amplitudes : 
  
 | HOLE  | ALPHA     | BETA      | PART  |    AMPLITUDE 
--------------------------------------------------
 |       | 111110000 | 111110000 |       |     6.2060493378472E-01
 |       | 111011000 | 111011000 |       |     7.0064170517468E-01
 |       | 110111000 | 110111000 |       |    -1.4338791062757E-01
 |       | 101111000 | 101111000 |       |    -1.6075771956768E-01
--------------------------------------------------
*** Contributions RASCI wfn    Active:  95.08
                                 Hole:   0.34
                                 Part:   4.58

      Mulliken population analysis 
 ---------------------------------------------------
   Atom    Charge (a.u.)   Spin (a.u.)  
 ---------------------------------------------------
   1  S    0.000000        0.000000 
   2  S    0.000000       -0.000000 
 ---------------------------------------------------
   Sum:    0.000000        0.000000 
 ---------------------------------------------------
 
  
 NATURAL OCCUPATION NUMBERS (higher than 1.0E-05)
            1           2           3           4           5           6
    1   2.0000000   2.0000000   1.9999998   1.9999995   1.9999991   1.9999988
            7           8           9          10          11          12
    1   1.9999987   1.9999984   1.9999982   1.9999973   1.9966550   1.9727363
           13          14          15          16          17          18
    1   1.9529581   1.9313914   1.9210241   1.1779605   0.9516583   0.0319068
           19          20          21          22          23          24
    1   0.0143626   0.0123543   0.0089071   0.0054080   0.0049830   0.0041364
           25          26          27          28          29          30
    1   0.0028885   0.0028455   0.0025610   0.0021872   0.0017556   0.0013304
  
*** Unpaired Electrons
 Yamaguchi Nd:         2.59
 Head-Gordon Nu:       2.09
 Head-Gordon Nu_nl:    1.99
  
**************************************************
 RAS-CI total energy for state   5:   -795.041682499361
  Excitation energy (eV) =  3.753751892547
  State symmetry: Au    (D2h      )
  <S^2>      :  0.0000
  Dipole Moment:    0.0000 X     0.0000 Y     0.0000 Z
  Trans. Moment:   -0.0000 X    -0.0000 Y    -0.0000 Z
  Strength   :  0.000000
  Natural transition orbitals ( 1 -> 5 ):
   e-/hole pair  1:  ampl =  0.487436 ( 23.8%)   [9 : 10]
   e-/hole pair  2:  ampl =  0.474243 ( 22.5%)   [8 : 11]
   Sum of square amplitudes: 0.47

 NATURAL OCCUPATION NUMBERS (higher than 1.0E-05)
            1           2           3           4           5           6
    1   2.0000000   2.0000000   1.9999999   1.9999998   1.9999991   1.9999991
            7           8           9          10          11          12
    1   1.9999989   1.9999986   1.9999985   1.9999984   1.9972518   1.9849677
           13          14          15          16          17          18
    1   1.9662929   1.5063253   1.4997766   1.4846029   1.4741568   0.0288812
           19          20          21          22          23          24
    1   0.0129616   0.0119444   0.0090069   0.0058696   0.0042760   0.0030570
           25          26          27          28          29          30
    1   0.0023717   0.0021996   0.0019347   0.0018092   0.0016457   0.0006761

  Amplitudes : 
  
 | HOLE  | ALPHA     | BETA      | PART  |    AMPLITUDE 
--------------------------------------------------
 |       | 111110000 | 101111000 |       |     4.9117135668327E-01
 |       | 111011000 | 110111000 |       |     4.7975461104045E-01
 |       | 110111000 | 111011000 |       |     4.7975461104125E-01
 |       | 101111000 | 111110000 |       |     4.9117135668241E-01
--------------------------------------------------
*** Contributions RASCI wfn    Active:  95.65
                                 Hole:   0.32
                                 Part:   4.03

      Mulliken population analysis 
 ---------------------------------------------------
   Atom    Charge (a.u.)   Spin (a.u.)  
 ---------------------------------------------------
   1  S    0.000000       -0.000000 
   2  S    0.000000        0.000000 
 ---------------------------------------------------
   Sum:    0.000000       -0.000000 
 ---------------------------------------------------
 
  
 NATURAL OCCUPATION NUMBERS (higher than 1.0E-05)
            1           2           3           4           5           6
    1   2.0000000   2.0000000   1.9999999   1.9999998   1.9999991   1.9999991
            7           8           9          10          11          12
    1   1.9999989   1.9999986   1.9999985   1.9999984   1.9972518   1.9849677
           13          14          15          16          17          18
    1   1.9662929   1.5063253   1.4997766   1.4846029   1.4741568   0.0288812
           19          20          21          22          23          24
    1   0.0129616   0.0119444   0.0090069   0.0058696   0.0042760   0.0030570
           25          26          27          28          29          30
    1   0.0023717   0.0021996   0.0019347   0.0018092   0.0016457   0.0006761
  
*** Unpaired Electrons
 Yamaguchi Nd:         3.31
 Head-Gordon Nu:       2.17
 Head-Gordon Nu_nl:    2.31
  
**************************************************
 RAS-CI total energy for state   6:   -795.038949294080
  Excitation energy (eV) =  3.828126192290
  State symmetry: B1u   (D2h      )
  <S^2>      :  2.0000
  Dipole Moment:   -0.0000 X     0.0000 Y    -0.0000 Z
  Trans. Moment:    0.0000 X    -0.0000 Y    -0.0000 Z
  Strength   :  0.000000
  Natural transition orbitals ( 1 -> 6 ):
   e-/hole pair  1:  ampl =  0.487961 ( 23.8%)   [9 : 10]
   e-/hole pair  2:  ampl =  0.474272 ( 22.5%)   [8 : 11]
   Sum of square amplitudes: 0.47

 NATURAL OCCUPATION NUMBERS (higher than 1.0E-05)
            1           2           3           4           5           6
    1   2.0000000   2.0000000   1.9999999   1.9999998   1.9999991   1.9999991
            7           8           9          10          11          12
    1   1.9999988   1.9999986   1.9999985   1.9999985   1.9977668   1.9802732
           13          14          15          16          17          18
    1   1.9679631   1.5063663   1.5033273   1.4808146   1.4777715   0.0281409
           19          20          21          22          23          24
    1   0.0119858   0.0119074   0.0071693   0.0055395   0.0047983   0.0045867
           25          26          27          28          29          30
    1   0.0034317   0.0021916   0.0020458   0.0018843   0.0013853   0.0006583

  Amplitudes : 
  
 | HOLE  | ALPHA     | BETA      | PART  |    AMPLITUDE 
--------------------------------------------------
 |       | 111110000 | 110111000 |       |     4.7932736165152E-01
 |       | 111011000 | 101111000 |       |     4.9217895822669E-01
 |       | 110111000 | 111110000 |       |    -4.7932736165151E-01
 |       | 101111000 | 111011000 |       |    -4.9217895822668E-01
--------------------------------------------------
*** Contributions RASCI wfn    Active:  95.74
                                 Hole:   0.25
                                 Part:   4.01

      Mulliken population analysis 
 ---------------------------------------------------
   Atom    Charge (a.u.)   Spin (a.u.)  
 ---------------------------------------------------
   1  S    0.000000        0.000000 
   2  S    0.000000       -0.000000 
 ---------------------------------------------------
   Sum:    0.000000       -0.000000 
 ---------------------------------------------------
 
  
 NATURAL OCCUPATION NUMBERS (higher than 1.0E-05)
            1           2           3           4           5           6
    1   2.0000000   2.0000000   1.9999999   1.9999998   1.9999991   1.9999991
            7           8           9          10          11          12
    1   1.9999988   1.9999986   1.9999985   1.9999985   1.9977668   1.9802732
           13          14          15          16          17          18
    1   1.9679631   1.5063663   1.5033273   1.4808146   1.4777715   0.0281409
           19          20          21          22          23          24
    1   0.0119858   0.0119074   0.0071693   0.0055395   0.0047983   0.0045867
           25          26          27          28          29          30
    1   0.0034317   0.0021916   0.0020458   0.0018843   0.0013853   0.0006583
  
*** Unpaired Electrons
 Yamaguchi Nd:         3.31
 Head-Gordon Nu:       2.17
 Head-Gordon Nu_nl:    2.31
  
**************************************************
 RAS-CI total energy for state   7:   -795.037920429886
  Excitation energy (eV) =  3.856123011427
  State symmetry: Au    (D2h      )
  <S^2>      :  2.0000
  Dipole Moment:   -0.0000 X    -0.0000 Y     0.0000 Z
  Trans. Moment:   -0.0000 X     0.0000 Y     0.0336 Z
  Strength   :  0.000106
  Natural transition orbitals ( 1 -> 7 ):
   e-/hole pair  1:  ampl =  0.495255 ( 24.5%)   [9 : 10]
   e-/hole pair  2:  ampl =  0.468353 ( 21.9%)   [8 : 11]
   Sum of square amplitudes: 0.47

 NATURAL OCCUPATION NUMBERS (higher than 1.0E-05)
            1           2           3           4           5           6
    1   2.0000000   2.0000000   1.9999999   1.9999998   1.9999991   1.9999990
            7           8           9          10          11          12
    1   1.9999990   1.9999987   1.9999985   1.9999984   1.9978131   1.9811489
           13          14          15          16          17          18
    1   1.9673164   1.5174096   1.5159515   1.4700030   1.4647137   0.0283031
           19          20          21          22          23          24
    1   0.0120920   0.0119334   0.0073630   0.0061764   0.0041162   0.0040622
           25          26          27          28          29          30
    1   0.0033740   0.0020585   0.0020454   0.0020397   0.0014221   0.0006655

  Amplitudes : 
  
 | HOLE  | ALPHA     | BETA      | PART  |    AMPLITUDE 
--------------------------------------------------
 |       | 111110000 | 101111000 |       |    -4.9805812898936E-01
 |       | 111011000 | 110111000 |       |     4.7328560987250E-01
 |       | 110111000 | 111011000 |       |    -4.7328560987169E-01
 |       | 101111000 | 111110000 |       |     4.9805812899020E-01
--------------------------------------------------
*** Contributions RASCI wfn    Active:  95.78
                                 Hole:   0.25
                                 Part:   3.97

      Mulliken population analysis 
 ---------------------------------------------------
   Atom    Charge (a.u.)   Spin (a.u.)  
 ---------------------------------------------------
   1  S    0.000000        0.000000 
   2  S    0.000000       -0.000000 
 ---------------------------------------------------
   Sum:    0.000000        0.000000 
 ---------------------------------------------------
 
  
 NATURAL OCCUPATION NUMBERS (higher than 1.0E-05)
            1           2           3           4           5           6
    1   2.0000000   2.0000000   1.9999999   1.9999998   1.9999991   1.9999990
            7           8           9          10          11          12
    1   1.9999990   1.9999987   1.9999985   1.9999984   1.9978131   1.9811489
           13          14          15          16          17          18
    1   1.9673164   1.5174096   1.5159515   1.4700030   1.4647137   0.0283031
           19          20          21          22          23          24
    1   0.0120920   0.0119334   0.0073630   0.0061764   0.0041162   0.0040622
           25          26          27          28          29          30
    1   0.0033740   0.0020585   0.0020454   0.0020397   0.0014221   0.0006655
  
*** Unpaired Electrons
 Yamaguchi Nd:         3.31
 Head-Gordon Nu:       2.17
 Head-Gordon Nu_nl:    2.31
  
**************************************************
 RAS-CI total energy for state   8:   -795.032665992727
  Excitation energy (eV) =  3.999103521166
  State symmetry: B1u   (D2h      )
  <S^2>      :  2.0000
  Dipole Moment:    0.0000 X     0.0000 Y    -0.0000 Z
  Trans. Moment:   -0.0000 X     0.0000 Y    -0.0000 Z
  Strength   :  0.000000
  Natural transition orbitals ( 1 -> 8 ):
   e-/hole pair  1:  ampl =  0.486889 ( 23.7%)   [9 : 10]
   e-/hole pair  2:  ampl =  0.473554 ( 22.4%)   [8 : 11]
   Sum of square amplitudes: 0.47

 NATURAL OCCUPATION NUMBERS (higher than 1.0E-05)
            1           2           3           4           5           6
    1   2.0000000   2.0000000   1.9999999   1.9999998   1.9999991   1.9999990
            7           8           9          10          11          12
    1   1.9999989   1.9999985   1.9999985   1.9999985   1.9974436   1.9807783
           13          14          15          16          17          18
    1   1.9673823   1.5087701   1.5063528   1.4787363   1.4764139   0.0283838
           19          20          21          22          23          24
    1   0.0119615   0.0118207   0.0069488   0.0049072   0.0046515   0.0041525
           25          26          27          28          29          30
    1   0.0031072   0.0022133   0.0020662   0.0019491   0.0012966   0.0006720

  Amplitudes : 
  
 | HOLE  | ALPHA     | BETA      | PART  |    AMPLITUDE 
--------------------------------------------------
 |       | 111110000 | 110111000 |       |     4.9339242961427E-01
 |       | 111011000 | 101111000 |       |    -4.7871532978399E-01
 |       | 110111000 | 111110000 |       |    -4.9339242961425E-01
 |       | 101111000 | 111011000 |       |     4.7871532978398E-01
--------------------------------------------------
*** Contributions RASCI wfn    Active:  95.90
                                 Hole:   0.29
                                 Part:   3.82

      Mulliken population analysis 
 ---------------------------------------------------
   Atom    Charge (a.u.)   Spin (a.u.)  
 ---------------------------------------------------
   1  S    0.000000       -0.000000 
   2  S    0.000000        0.000000 
 ---------------------------------------------------
   Sum:    0.000000       -0.000000 
 ---------------------------------------------------
 
  
 NATURAL OCCUPATION NUMBERS (higher than 1.0E-05)
            1           2           3           4           5           6
    1   2.0000000   2.0000000   1.9999999   1.9999998   1.9999991   1.9999990
            7           8           9          10          11          12
    1   1.9999989   1.9999985   1.9999985   1.9999985   1.9974436   1.9807783
           13          14          15          16          17          18
    1   1.9673823   1.5087701   1.5063528   1.4787363   1.4764139   0.0283838
           19          20          21          22          23          24
    1   0.0119615   0.0118207   0.0069488   0.0049072   0.0046515   0.0041525
           25          26          27          28          29          30
    1   0.0031072   0.0022133   0.0020662   0.0019491   0.0012966   0.0006720
  
*** Unpaired Electrons
 Yamaguchi Nd:         3.30
 Head-Gordon Nu:       2.17
 Head-Gordon Nu_nl:    2.30
  
**************************************************
 RAS-CI total energy for state   9:   -794.997222435901
  Excitation energy (eV) =  4.963571773006
  State symmetry: B3g   (D2h      )
  <S^2>      :  2.0000
  Dipole Moment:   -0.0000 X     0.0000 Y     0.0000 Z
  Trans. Moment:    0.0000 X    -0.0000 Y     0.0000 Z
  Strength   :  0.000000
  Natural transition orbitals ( 1 -> 9 ):
   e-/hole pair  1:  ampl =  0.672793 ( 45.3%)   [9 : 10]
   e-/hole pair  2:  ampl =  0.042863 (  0.2%)   [8 : 11]
   Sum of square amplitudes: 0.46

 NATURAL OCCUPATION NUMBERS (higher than 1.0E-05)
            1           2           3           4           5           6
    1   2.0000000   2.0000000   1.9999998   1.9999998   1.9999997   1.9999996
            7           8           9          10          11          12
    1   1.9999985   1.9999982   1.9999974   1.9999974   1.9951960   1.9852644
           13          14          15          16          17          18
    1   1.9699813   1.9611621   1.9592560   1.0160121   1.0097763   0.0285659
           19          20          21          22          23          24
    1   0.0162043   0.0133334   0.0105263   0.0070276   0.0065398   0.0053192
           25          26          27          28          29          30
    1   0.0046851   0.0029219   0.0026970   0.0021832   0.0020325   0.0013254

  Amplitudes : 
  
 | HOLE  | ALPHA     | BETA      | PART  |    AMPLITUDE 
--------------------------------------------------
 |       | 111110000 | 111101000 |       |     6.7589571745650E-01
 |       | 111101000 | 111110000 |       |    -6.7589571745637E-01
--------------------------------------------------
*** Contributions RASCI wfn    Active:  93.52
                                 Hole:   0.72
                                 Part:   5.76

      Mulliken population analysis 
 ---------------------------------------------------
   Atom    Charge (a.u.)   Spin (a.u.)  
 ---------------------------------------------------
   1  S    0.000000       -0.000000 
   2  S    0.000000       -0.000000 
 ---------------------------------------------------
   Sum:    0.000000       -0.000000 
 ---------------------------------------------------
 
  
 NATURAL OCCUPATION NUMBERS (higher than 1.0E-05)
            1           2           3           4           5           6
    1   2.0000000   2.0000000   1.9999998   1.9999998   1.9999997   1.9999996
            7           8           9          10          11          12
    1   1.9999985   1.9999982   1.9999974   1.9999974   1.9951960   1.9852644
           13          14          15          16          17          18
    1   1.9699813   1.9611621   1.9592560   1.0160121   1.0097763   0.0285659
           19          20          21          22          23          24
    1   0.0162043   0.0133334   0.0105263   0.0070276   0.0065398   0.0053192
           25          26          27          28          29          30
    1   0.0046851   0.0029219   0.0026970   0.0021832   0.0020325   0.0013254
  
*** Unpaired Electrons
 Yamaguchi Nd:         2.46
 Head-Gordon Nu:       2.21
 Head-Gordon Nu_nl:    2.02
  
**************************************************
 RAS-CI total energy for state  10:   -794.995452700183
  Excitation energy (eV) =  5.011728732047
  State symmetry: B2g   (D2h      )
  <S^2>      :  2.0000
  Dipole Moment:    0.0000 X     0.0000 Y     0.0000 Z
  Trans. Moment:   -0.0000 X     0.0000 Y     0.0000 Z
  Strength   :  0.000000
  Natural transition orbitals ( 1 -> 10 ):
   e-/hole pair  1:  ampl =  0.672191 ( 45.2%)   [9 : 10]
   e-/hole pair  2:  ampl =  0.042689 (  0.2%)   [8 : 11]
   Sum of square amplitudes: 0.46

 NATURAL OCCUPATION NUMBERS (higher than 1.0E-05)
            1           2           3           4           5           6
    1   2.0000000   2.0000000   1.9999997   1.9999996   1.9999993   1.9999990
            7           8           9          10          11          12
    1   1.9999989   1.9999988   1.9999978   1.9999973   1.9952519   1.9798934
           13          14          15          16          17          18
    1   1.9654795   1.9649123   1.9613747   1.0162773   1.0110036   0.0284045
           19          20          21          22          23          24
    1   0.0169716   0.0135954   0.0114548   0.0067063   0.0065934   0.0054093
           25          26          27          28          29          30
    1   0.0049397   0.0030180   0.0028806   0.0025787   0.0019238   0.0013409

  Amplitudes : 
  
 | HOLE  | ALPHA     | BETA      | PART  |    AMPLITUDE 
--------------------------------------------------
 |       | 111101000 | 111011000 |       |     6.7402238078976E-01
 |       | 111011000 | 111101000 |       |    -6.7402238078969E-01
--------------------------------------------------
*** Contributions RASCI wfn    Active:  93.07
                                 Hole:   0.71
                                 Part:   6.21

      Mulliken population analysis 
 ---------------------------------------------------
   Atom    Charge (a.u.)   Spin (a.u.)  
 ---------------------------------------------------
   1  S    0.000000        0.000000 
   2  S    0.000000        0.000000 
 ---------------------------------------------------
   Sum:    0.000000        0.000000 
 ---------------------------------------------------
 
  
 NATURAL OCCUPATION NUMBERS (higher than 1.0E-05)
            1           2           3           4           5           6
    1   2.0000000   2.0000000   1.9999997   1.9999996   1.9999993   1.9999990
            7           8           9          10          11          12
    1   1.9999989   1.9999988   1.9999978   1.9999973   1.9952519   1.9798934
           13          14          15          16          17          18
    1   1.9654795   1.9649123   1.9613747   1.0162773   1.0110036   0.0284045
           19          20          21          22          23          24
    1   0.0169716   0.0135954   0.0114548   0.0067063   0.0065934   0.0054093
           25          26          27          28          29          30
    1   0.0049397   0.0030180   0.0028806   0.0025787   0.0019238   0.0013409
  
*** Unpaired Electrons
 Yamaguchi Nd:         2.47
 Head-Gordon Nu:       2.21
 Head-Gordon Nu_nl:    2.02
  
**************************************************
 RAS-CI total energy for state  11:   -794.992569684233
  Excitation energy (eV) =  5.090179587501
  State symmetry: Au    (D2h      )
  <S^2>      :  2.0000
  Dipole Moment:   -0.0000 X     0.0000 Y     0.0000 Z
  Trans. Moment:    0.0000 X    -0.0000 Y    -1.0534 Z
  Strength   :  0.138388
  Natural transition orbitals ( 1 -> 11 ):
   e-/hole pair  1:  ampl =  0.478372 ( 22.9%)   [9 : 10]
   e-/hole pair  2:  ampl =  0.454096 ( 20.6%)   [8 : 11]
   Sum of square amplitudes: 0.50

 NATURAL OCCUPATION NUMBERS (higher than 1.0E-05)
            1           2           3           4           5           6
    1   2.0000000   2.0000000   1.9999998   1.9999998   1.9999994   1.9999991
            7           8           9          10          11          12
    1   1.9999989   1.9999987   1.9999985   1.9999969   1.9968201   1.9805817
           13          14          15          16          17          18
    1   1.9171486   1.5473882   1.4948879   1.4579836   1.4119398   0.0831945
           19          20          21          22          23          24
    1   0.0296860   0.0270940   0.0116278   0.0088530   0.0063910   0.0060383
           25          26          27          28          29          30
    1   0.0045861   0.0038494   0.0033276   0.0033065   0.0028912   0.0024133

  Amplitudes : 
  
 | HOLE  | ALPHA     | BETA      | PART  |    AMPLITUDE 
--------------------------------------------------
 |       | 111110000 | 101111000 |       |     4.4186706364825E-01
 |       | 111011000 | 110111000 |       |     4.6621673541782E-01
 |       | 110111000 | 111011000 |       |    -4.6621673541780E-01
 |       | 101111000 | 111110000 |       |    -4.4186706364829E-01
--------------------------------------------------
*** Contributions RASCI wfn    Active:  88.45
                                 Hole:   0.45
                                 Part:  11.10

      Mulliken population analysis 
 ---------------------------------------------------
   Atom    Charge (a.u.)   Spin (a.u.)  
 ---------------------------------------------------
   1  S    0.000000        0.000000 
   2  S    0.000000       -0.000000 
 ---------------------------------------------------
   Sum:    0.000000        0.000000 
 ---------------------------------------------------
 
  
 NATURAL OCCUPATION NUMBERS (higher than 1.0E-05)
            1           2           3           4           5           6
    1   2.0000000   2.0000000   1.9999998   1.9999998   1.9999994   1.9999991
            7           8           9          10          11          12
    1   1.9999989   1.9999987   1.9999985   1.9999969   1.9968201   1.9805817
           13          14          15          16          17          18
    1   1.9171486   1.5473882   1.4948879   1.4579836   1.4119398   0.0831945
           19          20          21          22          23          24
    1   0.0296860   0.0270940   0.0116278   0.0088530   0.0063910   0.0060383
           25          26          27          28          29          30
    1   0.0045861   0.0038494   0.0033276   0.0033065   0.0028912   0.0024133
  
*** Unpaired Electrons
 Yamaguchi Nd:         3.66
 Head-Gordon Nu:       2.39
 Head-Gordon Nu_nl:    2.43
  
**************************************************
 RAS-CI total energy for state  12:   -794.953631635072
  Excitation energy (eV) =  6.149737813799
  State symmetry: B3g   (D2h      )
  <S^2>      :  0.0000
  Dipole Moment:   -0.0000 X     0.0000 Y     0.0000 Z
  Trans. Moment:   -0.0000 X    -0.0000 Y     0.0000 Z
  Strength   :  0.000000
  Natural transition orbitals ( 1 -> 12 ):
   e-/hole pair  1:  ampl =  0.669181 ( 44.8%)   [9 : 10]
   e-/hole pair  2:  ampl =  0.050798 (  0.3%)   [8 : 11]
   Sum of square amplitudes: 0.46

 NATURAL OCCUPATION NUMBERS (higher than 1.0E-05)
            1           2           3           4           5           6
    1   2.0000000   2.0000000   1.9999998   1.9999998   1.9999998   1.9999996
            7           8           9          10          11          12
    1   1.9999992   1.9999980   1.9999976   1.9999975   1.9946466   1.9844206
           13          14          15          16          17          18
    1   1.9662743   1.9516561   1.9466427   1.0307036   1.0221861   0.0339967
           19          20          21          22          23          24
    1   0.0134269   0.0120284   0.0107409   0.0071872   0.0061586   0.0056927
           25          26          27          28          29          30
    1   0.0042321   0.0024576   0.0022276   0.0020923   0.0019761   0.0012616

  Amplitudes : 
  
 | HOLE  | ALPHA     | BETA      | PART  |    AMPLITUDE 
--------------------------------------------------
 |       | 111110000 | 111101000 |       |     6.7132049314445E-01
 |       | 111101000 | 111110000 |       |     6.7132049314458E-01
--------------------------------------------------
*** Contributions RASCI wfn    Active:  94.14
                                 Hole:   0.54
                                 Part:   5.32

      Mulliken population analysis 
 ---------------------------------------------------
   Atom    Charge (a.u.)   Spin (a.u.)  
 ---------------------------------------------------
   1  S    0.000000        0.000000 
   2  S    0.000000       -0.000000 
 ---------------------------------------------------
   Sum:    0.000000        0.000000 
 ---------------------------------------------------
 
  
 NATURAL OCCUPATION NUMBERS (higher than 1.0E-05)
            1           2           3           4           5           6
    1   2.0000000   2.0000000   1.9999998   1.9999998   1.9999998   1.9999996
            7           8           9          10          11          12
    1   1.9999992   1.9999980   1.9999976   1.9999975   1.9946466   1.9844206
           13          14          15          16          17          18
    1   1.9662743   1.9516561   1.9466427   1.0307036   1.0221861   0.0339967
           19          20          21          22          23          24
    1   0.0134269   0.0120284   0.0107409   0.0071872   0.0061586   0.0056927
           25          26          27          28          29          30
    1   0.0042321   0.0024576   0.0022276   0.0020923   0.0019761   0.0012616
  
*** Unpaired Electrons
 Yamaguchi Nd:         2.51
 Head-Gordon Nu:       2.21
 Head-Gordon Nu_nl:    2.03
  
**************************************************
 RAS-CI total energy for state  13:   -794.953226952753
  Excitation energy (eV) =  6.160749779986
  State symmetry: B2g   (D2h      )
  <S^2>      :  0.0000
  Dipole Moment:    0.0000 X    -0.0000 Y     0.0000 Z
  Trans. Moment:    0.0000 X     0.0000 Y    -0.0000 Z
  Strength   :  0.000000
  Natural transition orbitals ( 1 -> 13 ):
   e-/hole pair  1:  ampl =  0.668346 ( 44.7%)   [9 : 10]
   e-/hole pair  2:  ampl =  0.051376 (  0.3%)   [8 : 11]
   Sum of square amplitudes: 0.45

 NATURAL OCCUPATION NUMBERS (higher than 1.0E-05)
            1           2           3           4           5           6
    1   2.0000000   2.0000000   1.9999998   1.9999996   1.9999995   1.9999993
            7           8           9          10          11          12
    1   1.9999989   1.9999984   1.9999978   1.9999977   1.9949760   1.9792526
           13          14          15          16          17          18
    1   1.9623693   1.9514172   1.9510973   1.0316102   1.0232103   0.0346977
           19          20          21          22          23          24
    1   0.0161503   0.0142152   0.0069807   0.0061979   0.0059234   0.0058240
           25          26          27          28          29          30
    1   0.0057171   0.0027880   0.0021630   0.0021050   0.0020689   0.0012450

  Amplitudes : 
  
 | HOLE  | ALPHA     | BETA      | PART  |    AMPLITUDE 
--------------------------------------------------
 |       | 111101000 | 111011000 |       |     6.7038388810007E-01
 |       | 111011000 | 111101000 |       |     6.7038388810014E-01
--------------------------------------------------
*** Contributions RASCI wfn    Active:  94.08
                                 Hole:   0.52
                                 Part:   5.40

      Mulliken population analysis 
 ---------------------------------------------------
   Atom    Charge (a.u.)   Spin (a.u.)  
 ---------------------------------------------------
   1  S    0.000000        0.000000 
   2  S    0.000000        0.000000 
 ---------------------------------------------------
   Sum:    0.000000        0.000000 
 ---------------------------------------------------
 
  
 NATURAL OCCUPATION NUMBERS (higher than 1.0E-05)
            1           2           3           4           5           6
    1   2.0000000   2.0000000   1.9999998   1.9999996   1.9999995   1.9999993
            7           8           9          10          11          12
    1   1.9999989   1.9999984   1.9999978   1.9999977   1.9949760   1.9792526
           13          14          15          16          17          18
    1   1.9623693   1.9514172   1.9510973   1.0316102   1.0232103   0.0346977
           19          20          21          22          23          24
    1   0.0161503   0.0142152   0.0069807   0.0061979   0.0059234   0.0058240
           25          26          27          28          29          30
    1   0.0057171   0.0027880   0.0021630   0.0021050   0.0020689   0.0012450
  
*** Unpaired Electrons
 Yamaguchi Nd:         2.52
 Head-Gordon Nu:       2.21
 Head-Gordon Nu_nl:    2.03
  
**************************************************
 RAS-CI total energy for state  14:   -794.941594478136
  Excitation energy (eV) =  6.477285519138
  State symmetry: Au    (D2h      )
  <S^2>      :  0.0000
  Dipole Moment:   -0.0000 X     0.0000 Y     0.0000 Z
  Trans. Moment:    0.0000 X     0.0000 Y     0.0000 Z
  Strength   :  0.000000
  Natural transition orbitals ( 1 -> 14 ):
   e-/hole pair  1:  ampl =  0.470107 ( 22.1%)   [9 : 10]
   e-/hole pair  2:  ampl =  0.458610 ( 21.0%)   [8 : 11]
   Sum of square amplitudes: 0.45

 NATURAL OCCUPATION NUMBERS (higher than 1.0E-05)
            1           2           3           4           5           6
    1   2.0000000   2.0000000   1.9999999   1.9999998   1.9999992   1.9999990
            7           8           9          10          11          12
    1   1.9999988   1.9999987   1.9999986   1.9999969   1.9978562   1.9793978
           13          14          15          16          17          18
    1   1.9143642   1.5320807   1.5054090   1.4515823   1.4310180   0.0844872
           19          20          21          22          23          24
    1   0.0268636   0.0236980   0.0102193   0.0079005   0.0071988   0.0060300
           25          26          27          28          29          30
    1   0.0052952   0.0051818   0.0034390   0.0032398   0.0024183   0.0023293

  Amplitudes : 
  
 | HOLE  | ALPHA     | BETA      | PART  |    AMPLITUDE 
--------------------------------------------------
 |       | 111110000 | 111001100 |       |    -1.0486052211715E-01
 |       | 111110000 | 101111000 |       |    -4.4987174239918E-01
 |       | 111100100 | 111011000 |       |     1.0391139352661E-01
 |       | 111011000 | 111100100 |       |     1.0391139352657E-01
 |       | 111011000 | 110111000 |       |     4.6079661948538E-01
 |       | 111001100 | 111110000 |       |    -1.0486052211717E-01
 |       | 110111000 | 111011000 |       |     4.6079661948540E-01
 |       | 101111000 | 111110000 |       |    -4.4987174239916E-01
--------------------------------------------------
*** Contributions RASCI wfn    Active:  88.98
                                 Hole:   0.33
                                 Part:  10.70

      Mulliken population analysis 
 ---------------------------------------------------
   Atom    Charge (a.u.)   Spin (a.u.)  
 ---------------------------------------------------
   1  S    0.000000       -0.000000 
   2  S    0.000000       -0.000000 
 ---------------------------------------------------
   Sum:    0.000000       -0.000000 
 ---------------------------------------------------
 
  
 NATURAL OCCUPATION NUMBERS (higher than 1.0E-05)
            1           2           3           4           5           6
    1   2.0000000   2.0000000   1.9999999   1.9999998   1.9999992   1.9999990
            7           8           9          10          11          12
    1   1.9999988   1.9999987   1.9999986   1.9999969   1.9978562   1.9793978
           13          14          15          16          17          18
    1   1.9143642   1.5320807   1.5054090   1.4515823   1.4310180   0.0844872
           19          20          21          22          23          24
    1   0.0268636   0.0236980   0.0102193   0.0079005   0.0071988   0.0060300
           25          26          27          28          29          30
    1   0.0052952   0.0051818   0.0034390   0.0032398   0.0024183   0.0023293
  
*** Unpaired Electrons
 Yamaguchi Nd:         3.65
 Head-Gordon Nu:       2.38
 Head-Gordon Nu_nl:    2.43
  
**************************************************
 RAS-CI total energy for state  15:   -794.936230665809
  Excitation energy (eV) =  6.623242278604
  State symmetry: B1u   (D2h      )
  <S^2>      :  0.0000
  Dipole Moment:    0.0000 X     0.0000 Y     0.0000 Z
  Trans. Moment:   -0.0000 X    -0.0000 Y    -0.0000 Z
  Strength   :  0.000000
  Natural transition orbitals ( 1 -> 15 ):
   e-/hole pair  1:  ampl =  0.477844 ( 22.8%)   [9 : 10]
   e-/hole pair  2:  ampl =  0.450735 ( 20.3%)   [8 : 11]
   Sum of square amplitudes: 0.45

 NATURAL OCCUPATION NUMBERS (higher than 1.0E-05)
            1           2           3           4           5           6
    1   2.0000000   2.0000000   1.9999999   1.9999998   1.9999993   1.9999990
            7           8           9          10          11          12
    1   1.9999987   1.9999986   1.9999986   1.9999969   1.9978256   1.9836409
           13          14          15          16          17          18
    1   1.9139534   1.5471090   1.4899068   1.4728750   1.4077941   0.0856253
           19          20          21          22          23          24
    1   0.0258363   0.0247872   0.0109444   0.0081547   0.0065997   0.0055139
           25          26          27          28          29          30
    1   0.0050683   0.0035478   0.0034431   0.0027028   0.0024034   0.0022777

  Amplitudes : 
  
 | HOLE  | ALPHA     | BETA      | PART  |    AMPLITUDE 
--------------------------------------------------
 |       | 111110000 | 111100100 |       |     1.0937331610346E-01
 |       | 111110000 | 110111000 |       |     4.6978290337966E-01
 |       | 111100100 | 111110000 |       |     1.0937331610330E-01
 |       | 111011000 | 111001100 |       |     1.0084973226141E-01
 |       | 111011000 | 101111000 |       |     4.4160559526042E-01
 |       | 111001100 | 111011000 |       |     1.0084973226167E-01
 |       | 110111000 | 111110000 |       |     4.6978290337967E-01
 |       | 101111000 | 111011000 |       |     4.4160559526044E-01
--------------------------------------------------
*** Contributions RASCI wfn    Active:  89.22
                                 Hole:   0.33
                                 Part:  10.45

      Mulliken population analysis 
 ---------------------------------------------------
   Atom    Charge (a.u.)   Spin (a.u.)  
 ---------------------------------------------------
   1  S    0.000000       -0.000000 
   2  S    0.000000        0.000000 
 ---------------------------------------------------
   Sum:    0.000000        0.000000 
 ---------------------------------------------------
 
  
 NATURAL OCCUPATION NUMBERS (higher than 1.0E-05)
            1           2           3           4           5           6
    1   2.0000000   2.0000000   1.9999999   1.9999998   1.9999993   1.9999990
            7           8           9          10          11          12
    1   1.9999987   1.9999986   1.9999986   1.9999969   1.9978256   1.9836409
           13          14          15          16          17          18
    1   1.9139534   1.5471090   1.4899068   1.4728750   1.4077941   0.0856253
           19          20          21          22          23          24
    1   0.0258363   0.0247872   0.0109444   0.0081547   0.0065997   0.0055139
           25          26          27          28          29          30
    1   0.0050683   0.0035478   0.0034431   0.0027028   0.0024034   0.0022777
  
*** Unpaired Electrons
 Yamaguchi Nd:         3.64
 Head-Gordon Nu:       2.37
 Head-Gordon Nu_nl:    2.43
  
**************************************************
 RAS-CI total energy for state  16:   -794.898954120399
  Excitation energy (eV) =  7.637588687550
  State symmetry: B1u   (D2h      )
  <S^2>      :  0.0000
  Dipole Moment:    0.0000 X    -0.0000 Y     0.0000 Z
  Trans. Moment:   -0.0000 X     0.0000 Y     0.0000 Z
  Strength   :  0.000000
  Natural transition orbitals ( 1 -> 16 ):
   e-/hole pair  1:  ampl =  0.472300 ( 22.3%)   [9 : 10]
   e-/hole pair  2:  ampl =  0.443539 ( 19.7%)   [8 : 11]
   Sum of square amplitudes: 0.43

 NATURAL OCCUPATION NUMBERS (higher than 1.0E-05)
            1           2           3           4           5           6
    1   2.0000000   2.0000000   1.9999998   1.9999998   1.9999990   1.9999988
            7           8           9          10          11          12
    1   1.9999986   1.9999986   1.9999985   1.9999968   1.9846131   1.9613159
           13          14          15          16          17          18
    1   1.8980348   1.5578141   1.5047215   1.4844252   1.4282640   0.0878772
           19          20          21          22          23          24
    1   0.0262751   0.0220892   0.0108681   0.0080444   0.0053055   0.0042594
           25          26          27          28          29          30
    1   0.0034075   0.0032017   0.0030056   0.0024929   0.0023698   0.0016255

  Amplitudes : 
  
 | HOLE  | ALPHA     | BETA      | PART  |    AMPLITUDE 
--------------------------------------------------
 |       | 111110000 | 111100100 |       |    -1.1059358842912E-01
 |       | 111110000 | 110111000 |       |    -4.3772845113721E-01
 |       | 111100100 | 111110000 |       |    -1.1059358842919E-01
 |       | 111011000 | 111001100 |       |     1.1248457320598E-01
 |       | 111011000 | 101111000 |       |     4.6436765169078E-01
 |       | 111001100 | 111011000 |       |     1.1248457320606E-01
 |       | 110111000 | 111110000 |       |    -4.3772845113722E-01
 |       | 101111000 | 111011000 |       |     4.6436765169079E-01
--------------------------------------------------
*** Contributions RASCI wfn    Active:  88.69
                                 Hole:   1.54
                                 Part:   9.76

      Mulliken population analysis 
 ---------------------------------------------------
   Atom    Charge (a.u.)   Spin (a.u.)  
 ---------------------------------------------------
   1  S    0.000000       -0.000000 
   2  S    0.000000       -0.000000 
 ---------------------------------------------------
   Sum:    0.000000       -0.000000 
 ---------------------------------------------------
 
  
 NATURAL OCCUPATION NUMBERS (higher than 1.0E-05)
            1           2           3           4           5           6
    1   2.0000000   2.0000000   1.9999998   1.9999998   1.9999990   1.9999988
            7           8           9          10          11          12
    1   1.9999986   1.9999986   1.9999985   1.9999968   1.9846131   1.9613159
           13          14          15          16          17          18
    1   1.8980348   1.5578141   1.5047215   1.4844252   1.4282640   0.0878772
           19          20          21          22          23          24
    1   0.0262751   0.0220892   0.0108681   0.0080444   0.0053055   0.0042594
           25          26          27          28          29          30
    1   0.0034075   0.0032017   0.0030056   0.0024929   0.0023698   0.0016255
  
*** Unpaired Electrons
 Yamaguchi Nd:         3.67
 Head-Gordon Nu:       2.36
 Head-Gordon Nu_nl:    2.36
  
**************************************************
 RAS-CI total energy for state  17:   -794.872460220563
  Excitation energy (eV) =  8.358524382132
  State symmetry: B3g   (D2h      )
  <S^2>      :  2.0000
  Dipole Moment:    0.0000 X     0.0000 Y     0.0000 Z
  Trans. Moment:   -0.0000 X     0.0000 Y    -0.0000 Z
  Strength   :  0.000000
  Natural transition orbitals ( 1 -> 17 ):
   e-/hole pair  1:  ampl =  0.377374 ( 14.2%)   [9 : 10]
   e-/hole pair  2:  ampl =  0.102160 (  1.0%)   [8 : 11]
   Sum of square amplitudes: 0.15

 NATURAL OCCUPATION NUMBERS (higher than 1.0E-05)
            1           2           3           4           5           6
    1   2.0000000   2.0000000   1.9999999   1.9999998   1.9999992   1.9999989
            7           8           9          10          11          12
    1   1.9999987   1.9999982   1.9999981   1.9999977   1.9982339   1.9795056
           13          14          15          16          17          18
    1   1.9707170   1.7448282   1.2282683   1.2274798   0.9689334   0.7782883
           19          20          21          22          23          24
    1   0.0456490   0.0158810   0.0078025   0.0073344   0.0062008   0.0055600
           25          26          27          28          29          30
    1   0.0048092   0.0031690   0.0027892   0.0017981   0.0015561   0.0012056

  Amplitudes : 
  
 | HOLE  | ALPHA     | BETA      | PART  |    AMPLITUDE 
--------------------------------------------------
 |       | 111110000 | 101011100 |       |    -4.8784127229833E-01
 |       | 111011000 | 111010010 |       |    -1.0284444574707E-01
 |       | 111011000 | 110011100 |       |    -3.1448351844861E-01
 |       | 111011000 | 101110100 |       |    -1.1069382581973E-01
 |       | 111010100 | 101111000 |       |    -2.8395481841137E-01
 |       | 111010010 | 111011000 |       |     1.0284444574718E-01
 |       | 110011100 | 111011000 |       |     3.1448351844874E-01
 |       | 101111000 | 111010100 |       |     2.8395481839506E-01
 |       | 101110100 | 111011000 |       |     1.1069382583601E-01
 |       | 101011100 | 111110000 |       |     4.8784127228239E-01
--------------------------------------------------
*** Contributions RASCI wfn    Active:  91.07
                                 Hole:   0.19
                                 Part:   8.74

      Mulliken population analysis 
 ---------------------------------------------------
   Atom    Charge (a.u.)   Spin (a.u.)  
 ---------------------------------------------------
   1  S    0.000000        0.000000 
   2  S   -0.000000       -0.000000 
 ---------------------------------------------------
   Sum:    0.000000        0.000000 
 ---------------------------------------------------
 
  
 NATURAL OCCUPATION NUMBERS (higher than 1.0E-05)
            1           2           3           4           5           6
    1   2.0000000   2.0000000   1.9999999   1.9999998   1.9999992   1.9999989
            7           8           9          10          11          12
[...]
     3    3.018227831030e-01
     4   -1.013274313814e+00
     5    1.036883357972e+00
     6    3.657591787596e-16
     7    5.150596783284e-16
     8   -5.089715393473e-02
     9    4.198895070903e-16
    10   -4.191456027972e-16
    11   -5.883169390350e-03
    12    3.889054719041e-16
    13    7.379109241647e-16
    14   -1.701705759956e-02
    15   -7.284997942479e-15
    16   -4.010052945230e-15
    17    5.224556235091e-01
    18    1.385282225985e-14
    19    8.018520750511e-15
    20   -6.468739281494e-01
    21   -5.810111240190e-02
    22   -1.548374200445e-15
    23   -1.110741725406e-15
    24    2.217448700791e-02
    25   -9.948367389440e-16
    26   -3.051937498156e-01
    27   -1.314315295770e-15
    28   -1.957489341097e-15
    29    7.899599449083e-02
    30   -3.957225455001e-15
    31   -2.507709444448e-02
    32    2.181545285719e-16
    33    2.332384217373e-16
    34    1.742781748998e-03
    35   -4.571629801207e-17
    36   -1.769411164583e-16
    37   -3.927380992225e-16
    38   -4.512495111954e-02
    39   -2.611682336350e-02
    40    3.018227831031e-01
    41   -1.013274313814e+00
    42    1.036883357973e+00
    43   -1.978527209627e-15
    44   -1.244804106603e-15
    45    5.089715393475e-02
    46   -3.348633465348e-16
    47   -1.765183851469e-16
    48    5.883169390346e-03
    49    4.952395251581e-16
    50    4.181246989200e-16
    51    1.701705759962e-02
    52    1.543205350304e-14
    53    8.016309469863e-15
    54   -5.224556235095e-01
    55   -2.145609320870e-14
    56   -1.113947775426e-14
    57    6.468739281493e-01
    58   -5.810111240192e-02
    59    6.723752280241e-17
    60    4.137621899366e-16
    61    2.217448700791e-02
    62   -7.808296815092e-16
    63   -3.051937498155e-01
    64    2.416018377521e-15
    65    1.909279714288e-15
    66    7.899599449083e-02
    67   -3.225768161519e-15
    68    2.507709444444e-02
    69   -1.120502821732e-16
    70   -3.305181217876e-16
    71   -1.742781748998e-03
    72   -2.614830576653e-16
    73    1.913794642317e-17
    74    2.688092307444e-16
Sym=X
Ene= 0.576249
Spin=Alpha
Occup=0
     1    9.779963197583e-04
     2    6.060493731164e-04
     3   -6.955726925405e-03
     4    3.152483099803e-02
     5   -5.057321192764e-02
     6   -7.795675424276e-16
     7   -1.036512601944e-16
     8   -2.310553803436e-03
     9   -1.984782836326e-16
    10   -2.719049623939e-16
    11   -1.253685820906e-03
    12    1.189573053119e-15
    13    1.275477095571e-15
    14    3.797296836408e-03
    15    2.800985535033e-15
    16   -3.009387763780e-16
    17    8.407376083011e-03
    18    2.286098957240e-15
    19   -3.847343154168e-15
    20   -2.206186902512e-02
    21    1.799165099688e-03
    22    1.706163382268e-15
    23   -6.150218218726e-16
    24    1.560541751050e-01
    25    7.318268501784e-18
    26    3.365507041997e-03
    27    1.180564070153e-14
    28   -4.584388190692e-15
    29    6.621786485791e-01
    30    1.019436637837e-15
    31   -2.248017897361e-03
    32    1.839948711104e-15
    33   -1.900230692098e-16
    34   -2.001363938830e-02
    35   -1.962849586481e-17
    36    4.484241302209e-17
    37    2.345561753310e-16
    38   -9.779963197584e-04
    39   -6.060493731166e-04
    40    6.955726925406e-03
    41   -3.152483099803e-02
    42    5.057321192764e-02
    43    4.722408618348e-16
    44   -8.566697188203e-18
    45   -2.310553803436e-03
    46    3.059191891616e-16
    47    7.396737103323e-18
    48   -1.253685820907e-03
    49   -1.114869055021e-15
    50    4.458895846867e-17
    51    3.797296836407e-03
    52   -1.702529848515e-15
    53   -1.117391230426e-16
    54    8.407376083016e-03
    55   -4.564945755361e-15
    56    3.506960996734e-15
    57   -2.206186902512e-02
    58   -1.799165099687e-03
    59    9.239863269707e-16
    60   -8.906450736674e-16
    61   -1.560541751050e-01
    62   -2.233690524236e-16
    63   -3.365507041991e-03
    64    9.705131207529e-15
    65   -4.456860444838e-15
    66   -6.621786485791e-01
    67   -3.418297005954e-16
    68   -2.248017897362e-03
    69   -1.447893383590e-15
    70    2.066038077241e-17
    71   -2.001363938830e-02
    72   -1.692139510603e-16
    73    9.175507450291e-17
    74   -5.412660084889e-17
Sym=X
Ene= 0.577216
Spin=Alpha
Occup=0
     1    2.313044053958e-19
     2    8.003258473836e-18
     3    4.674768019831e-17
     4   -2.351257345932e-16
     5   -1.230748605921e-15
     6   -1.570767466723e-16
     7   -1.104635871979e-15
     8    9.697098493890e-17
     9   -5.773632573779e-17
    10   -3.667809500269e-16
    11    1.346505607225e-17
    12    2.343549308500e-16
    13    1.189596184060e-15
    14    4.252082165511e-17
    15    1.391094083939e-15
    16    6.095961726363e-15
    17   -8.766139586774e-16
    18   -2.652945491860e-15
    19   -9.074410303654e-15
    20    8.087137482184e-16
    21    4.257068551375e-16
    22   -2.271851777952e-16
    23   -4.195031046349e-16
    24    7.365719692804e-16
    25   -1.561652509886e-01
    26   -1.730369661436e-16
    27   -1.454112417893e-15
    28   -1.726515168095e-15
    29    1.093814600636e-15
    30   -6.622846618267e-01
    31    6.910004253772e-18
    32    5.004674193950e-17
    33    9.927666563014e-17
    34    2.801944338601e-16
    35    1.996444996323e-02
    36   -2.633963000518e-17
    37    1.908247512347e-16
    38    1.780711340671e-17
    39   -5.449183634663e-18
    40   -4.003902635348e-18
    41    1.149465930505e-16
    42    7.568643864399e-17
    43    2.336927970231e-16
    44    3.118920469845e-16
    45   -1.933453517224e-16
    46   -8.294238662840e-17
    47    6.415189203269e-17
    48   -1.400686136037e-16
    49    4.044607958359e-16
    50    1.063648012900e-16
    51    4.371481626503e-16
    52   -2.801748219159e-15
    53   -2.973833927644e-15
    54    8.032286552856e-16
    55    4.390570412547e-15
    56    6.708799666795e-15
    57   -2.232558964999e-15
    58    1.458465307091e-16
    59    7.087236040534e-16
    60    9.066716576404e-16
    61   -6.759710179527e-17
    62    1.561652509886e-01
    63    7.736104465786e-16
    64    7.914343815761e-17
    65    1.589923640080e-15
    66    2.030336361111e-16
    67    6.622846618267e-01
    68    1.414467720754e-16
    69   -9.548054664982e-17
    70    2.493711646231e-16
    71   -1.693684535549e-16
    72    1.996444996323e-02
    73   -1.448433585684e-16
    74   -3.311767568181e-16
Sym=X
Ene= 0.776291
Spin=Alpha
Occup=0
     1    5.980029193855e-02
     2    3.390150922593e-02
     3   -4.141062132661e-01
     4    1.883722592412e+00
     5   -3.347773997256e+00
     6    2.789530680130e-17
     7   -2.832992872391e-16
     8   -5.163400073558e-02
     9    6.546902817845e-16
    10   -1.673756459457e-17
    11   -5.048809537658e-02
    12   -1.316213958018e-15
    13    2.934900646847e-16
    14    2.197252964878e-01
    15    4.253797856750e-16
    16    1.819160149211e-16
    17   -2.251182723650e-01
    18   -9.578388379423e-15
    19    7.491291610254e-15
    20   -1.314812016221e+00
    21    7.318677008248e-02
    22   -2.704976685588e-15
    23    2.420454943978e-15
    24   -1.045544359352e-02
    25   -1.250625752639e-17
    26   -9.837763798398e-02
    27   -1.370648675702e-14
    28    1.187348548360e-14
    29   -7.930300823373e-03
    30   -3.727068389343e-17
    31   -1.381479347681e-01
    32    2.213485595553e-16
    33   -3.082353551270e-17
    34   -9.931135342910e-04
    35   -2.086181542634e-16
    36    1.841432385767e-16
    37   -1.772723393281e-16
    38   -5.980029193858e-02
    39   -3.390150922595e-02
    40    4.141062132664e-01
    41   -1.883722592413e+00
    42    3.347773997256e+00
    43   -2.988219207356e-16
    44    4.670988845264e-16
    45   -5.163400073561e-02
    46   -3.826235695353e-17
    47    4.297623386738e-16
    48   -5.048809537656e-02
    49    4.340707384720e-16
    50   -1.109869751514e-15
    51    2.197252964877e-01
    52    8.115702544272e-16
    53   -1.853916196593e-15
    54   -2.251182723643e-01
    55    8.776751095004e-15
    56   -5.418955819719e-15
    57   -1.314812016222e+00
    58   -7.318677008230e-02
    59   -2.582011412713e-15
    60    2.190770986895e-15
    61    1.045544359353e-02
    62    3.633915180354e-16
    63    9.837763798454e-02
    64   -1.418874599094e-14
    65    1.239774308676e-14
    66    7.930300823366e-03
    67    2.322726072796e-16
    68   -1.381479347681e-01
    69   -2.762582163335e-16
    70    4.744925207632e-16
    71   -9.931135342903e-04
    72   -3.476648052909e-16
    73    9.997520192852e-17
    74   -9.956579894737e-17
Sym=X
Ene= 0.796781
Spin=Alpha
Occup=0
     1    4.330384882006e-02
     2    2.305083954305e-02
     3   -3.008198229920e-01
     4    1.167715069778e+00
     5   -6.048633086648e-01
     6   -2.443356561908e-16
     7    5.865387468632e-16
     8   -2.622401316508e-02
     9   -4.579919884762e-16
    10    4.447002967811e-16
    11    1.234094249123e-02
    12    5.362830873268e-16
    13   -1.671663068502e-15
    14   -8.557824499323e-02
    15    1.979093038391e-15
    16   -6.561879529875e-16
    17    6.508753368339e-01
    18    9.927175101381e-15
    19   -1.431602009284e-14
    20   -6.868430203276e-01
    21   -1.986121516903e-01
    22    4.759072666431e-15
    23   -4.807317792636e-15
    24   -7.439563271083e-03
    25   -3.827017419382e-16
    26   -5.112765986081e-01
    27    1.822857886142e-14
    28   -2.281949103327e-14
    29    4.951737761508e-03
    30   -1.197928479878e-15
    31    3.141361759864e-02
    32   -1.185948392977e-15
    33    5.697116996674e-16
    34    7.958041454596e-04
    35    8.398325480463e-16
    36   -3.997633067088e-17
    37    6.161095388527e-16
    38    4.330384882000e-02
    39    2.305083954302e-02
    40   -3.008198229916e-01
    41    1.167715069776e+00
    42   -6.048633086619e-01
    43    3.010704092962e-16
    44   -4.853713153380e-16
    45    2.622401316503e-02
    46    1.163059551295e-16
    47   -6.707136338085e-17
    48   -1.234094249128e-02
    49   -3.121444318655e-16
    50    1.028040330765e-16
    51    8.557824499342e-02
    52   -1.019168283780e-15
    53    1.631649155171e-15
    54   -6.508753368339e-01
    55   -1.102877849628e-14
    56    1.430606154341e-14
    57    6.868430203265e-01
    58   -1.986121516903e-01
    59    3.880993839172e-15
    60   -4.533530954032e-15
    61   -7.439563271072e-03
    62   -4.049473690463e-16
    63   -5.112765986082e-01
    64    1.779899865412e-14
    65   -2.265525500278e-14
    66    4.951737761510e-03
    67    2.919800523956e-16
    68   -3.141361759875e-02
    69    7.398489284346e-16
    70   -9.425653171639e-16
    71   -7.958041454616e-04
    72   -2.406534798744e-16
    73    5.944920470626e-16
    74   -6.825655601393e-16
Sym=X
Ene= 0.802144
Spin=Alpha
Occup=0
     1    2.609462758235e-16
     2    1.006721354744e-16
     3   -1.717592630303e-15
     4    1.615364064155e-15
     5    3.882814941445e-14
     6   -2.172340639361e-09
     7   -2.323341051624e-02
     8    1.314319470171e-16
     9   -8.243168524019e-10
    10   -1.509220972320e-02
    11    1.195012080303e-15
    12    1.294370292397e-09
    13    5.316287658067e-02
    14   -6.382652655196e-15
    15    1.150820135578e-08
    16    2.162426649040e-02
    17    2.239889492841e-14
    18   -2.167368740928e-08
    19    5.839778514355e-01
    20    3.688410863536e-15
    21   -6.102950347069e-15
    22   -7.057155472010e-09
    23    1.889203739605e-01
    24    7.639936262295e-16
    25   -1.522387262636e-16
    26   -8.668555118174e-15
    27   -3.155394147735e-08
    28    9.174647512817e-01
    29    3.028271604086e-15
    30    1.217975883011e-15
    31    2.150196538406e-15
    32    1.269004804310e-09
    33   -3.637039685778e-02
    34   -4.804429338874e-16
    35    5.352704408130e-16
    36   -4.769724510397e-10
    37   -6.698382934967e-04
    38    1.881588301543e-15
    39    9.486177425656e-16
    40   -1.306960519971e-14
    41    5.582450540954e-14
    42   -6.743421618252e-14
    43    2.172340236171e-09
    44    2.323341051624e-02
    45    1.505135668045e-15
    46    8.243166887624e-10
    47    1.509220972320e-02
    48    5.021376799016e-16
    49   -1.294369431690e-09
    50   -5.316287658066e-02
    51   -1.604314110065e-15
    52   -1.150820022042e-08
    53   -2.162426649040e-02
    54   -1.207060881027e-14
    55    2.167368500468e-08
    56   -5.839778514355e-01
    57    4.024864269899e-14
    58   -3.700664625020e-15
    59   -7.057153222218e-09
    60    1.889203739605e-01
    61   -1.541066537508e-15
    62   -4.581268445006e-16
    63   -1.734193280187e-14
    64   -3.155394548936e-08
    65    9.174647512817e-01
    66   -2.390551907000e-15
    67    1.581509854826e-16
    68    9.032263090533e-16
    69   -1.269007619083e-09
    70    3.637039685778e-02
    71   -1.605711965312e-15
    72    1.362018279968e-15
    73    4.769714008081e-10
    74    6.698382934964e-04
Sym=X
Ene= 0.823575
Spin=Alpha
Occup=0
     1    5.443172891653e-18
     2    7.754102067670e-17
     3   -1.227317427623e-16
     4    6.395746303276e-15
     5   -4.852407244793e-14
     6   -2.166755495436e-02
     7    3.319358798624e-10
     8   -8.907280576090e-16
     9   -1.448081683872e-02
    10    3.558384320776e-10
    11   -1.644549311280e-15
    12    5.234605492917e-02
    13   -1.055680241381e-09
    14    8.405985614296e-15
    15    1.428894488479e-02
    16    1.248097572521e-09
    17   -2.108747615541e-14
    18    5.837894315092e-01
    19    9.730039668082e-09
    20   -1.164926501164e-14
    21    5.588798265342e-15
    22    1.895800894148e-01
    23    7.049702710432e-09
    24   -2.708755668606e-15
    25   -8.265528110943e-17
    26    5.453018307618e-15
    27    9.172586220784e-01
    28    3.149190044421e-08
    29   -4.616548985817e-15
    30   -4.371046101720e-17
    31   -1.801804742928e-15
    32   -3.624889630578e-02
    33   -1.366583819067e-09
    34    1.907594453304e-15
    35    2.608977611315e-16
    36   -6.177435183767e-04
    37    2.566791483560e-10
    38   -1.838725630175e-15
    39   -1.040019701342e-15
    40    1.280969430591e-14
    41   -5.563030657054e-14
    42    7.466476402212e-14
    43    2.166755495436e-02
    44   -3.319358844169e-10
    45   -1.890122278170e-15
    46    1.448081683872e-02
    47   -3.558385832263e-10
    48   -1.327866733352e-15
    49   -5.234605492917e-02
    50    1.055681068713e-09
    51    5.284513050002e-15
    52   -1.428894488479e-02
    53   -1.248099510968e-09
    54    5.096398945034e-15
    55   -5.837894315092e-01
    56   -9.730039031412e-09
    57   -3.911273531365e-14
    58    2.394160892312e-15
    59    1.895800894148e-01
    60    7.049702983461e-09
    61    2.588991222858e-15
    62    2.780249047047e-16
    63    1.631871658995e-14
    64    9.172586220784e-01
    65    3.149189825834e-08
    66    5.274903361938e-15
    67    3.505470564577e-16
    68   -2.020851210279e-16
    69    3.624889630578e-02
    70    1.366583462665e-09
    71    2.242283803199e-15
    72    8.947821617567e-17
    73    6.177435183779e-04
    74   -2.566793811485e-10
Sym=X
Ene= 1.093159
Spin=Alpha
Occup=0
     1   -1.690792213038e-02
     2   -1.830421470541e-04
     3    1.323777502860e-01
     4   -1.592696603483e+00
     5    5.693799309097e+00
     6    1.168528877137e-16
     7    9.788802335146e-17
     8   -1.427208478665e-01
     9    7.450217274083e-16
    10   -1.175823978673e-17
    11   -1.987039028793e-02
    12   -2.367214955778e-15
    13   -2.274278297335e-16
    14   -7.987343471328e-02
    15    1.834317974621e-15
    16   -3.125697829815e-16
    17    2.044921008028e+00
    18   -5.568140728461e-16
    19   -1.356787523504e-15
    20    2.123345842512e+00
    21    4.577322323611e-02
    22    1.002929025893e-15
    23   -1.098424416045e-16
    24    4.036341693654e-03
    25    5.884603961047e-16
    26    1.867362379264e+00
    27   -9.592096920018e-17
    28   -2.199489071791e-15
    29   -6.683924971521e-03
    30   -8.832183084930e-16
    31    1.373545123050e-01
    32   -2.741681982788e-16
    33   -4.218827164871e-16
    34   -3.146363227838e-03
    35   -1.359785294105e-16
    36   -1.399802300610e-16
    37   -1.503837771102e-16
    38    1.690792213038e-02
    39    1.830421470437e-04
    40   -1.323777502860e-01
    41    1.592696603483e+00
    42   -5.693799309097e+00
    43   -1.991139064773e-16
    44    6.299593145144e-17
    45   -1.427208478665e-01
    46    6.599043283814e-16
    47    4.799371684713e-16
    48   -1.987039028793e-02
    49   -7.911998075790e-16
    50   -1.728752422905e-15
    51   -7.987343471329e-02
    52    1.480619832106e-16
    53    1.737045421611e-15
    54    2.044921008027e+00
    55    1.686996355315e-16
    56    1.189784407204e-15
    57    2.123345842512e+00
    58   -4.577322323607e-02
    59    1.239407704942e-15
    60    8.741682366373e-17
    61   -4.036341693665e-03
    62   -1.559486885580e-15
    63   -1.867362379264e+00
    64   -6.083561232155e-16
    65   -1.937012273270e-15
    66    6.683924971530e-03
    67    5.655049057927e-16
    68    1.373545123050e-01
    69   -1.209989198917e-16
    70    1.015833078852e-15
    71   -3.146363227838e-03
    72    1.060304794264e-15
    73    2.605995187404e-17
    74   -7.868333882107e-16
Sym=X
Ene= 1.569425
Spin=Alpha
Occup=0
     1   -6.517440458275e-04
     2   -3.702765143473e-03
     3    8.047791887389e-04
     4    8.506901960500e-02
     5    1.280792016887e-02
     6    5.887083199232e-17
     7    5.668383613312e-16
     8   -1.662104174757e-02
     9   -3.418253120903e-16
    10    1.333701922036e-15
    11   -5.849903120737e-02
    12   -1.194371427488e-16
    13   -3.692654818941e-15
    14    2.639311569234e-01
    15    8.939642951080e-16
    16    1.907316178759e-15
    17   -2.136473726474e-01
    18   -2.696232908171e-16
    19    3.571590395252e-15
    20    1.831616549446e-02
    21    5.562227159111e-01
    22   -3.298939996604e-15
    23    3.219465210173e-14
    24    2.454714196036e-02
    25   -4.750767411851e-16
    26   -5.492806530105e-01
    27    3.809313511762e-15
    28   -2.321279281108e-14
    29   -2.152779816957e-02
    30    1.721382290516e-15
    31    4.129537494345e-01
    32   -3.597186933180e-15
    33    2.384720109063e-14
    34    3.924696638338e-02
    35   -5.851896227209e-15
    36   -7.109832483434e-16
    37    3.623957747110e-17
    38   -6.517440458291e-04
    39   -3.702765143473e-03
    40    8.047791887504e-04
    41    8.506901960498e-02
    42    1.280792016876e-02
    43    2.626355272518e-16
    44    9.717811223206e-16
    45    1.662104174758e-02
    46    4.591131133794e-16
    47    7.059376909334e-16
    48    5.849903120737e-02
    49   -2.825694275201e-15
    50   -2.776549064331e-15
    51   -2.639311569234e-01
    52    3.698497091045e-15
    53    6.751874466644e-17
    54    2.136473726475e-01
    55   -2.650922533219e-15
    56    1.678684277221e-15
    57   -1.831616549443e-02
    58    5.562227159111e-01
    59    6.477778094082e-15
    60   -3.458351529082e-14
    61    2.454714196036e-02
    62    2.424987239630e-15
    63   -5.492806530106e-01
    64   -3.954345720591e-15
    65    2.966689796114e-14
    66   -2.152779816957e-02
    67   -1.007012749483e-15
    68   -4.129537494345e-01
    69   -6.617600893325e-15
    70    1.982401314581e-14
    71   -3.924696638337e-02
    72    6.748236167711e-15
    73   -5.583515344804e-15
    74    3.058087838402e-15
[5D7F]

======= END OF MOLDEN-FORMATTED INPUT FILE =======


        *************************************************************
        *                                                           *
        *  Thank you very much for using Q-Chem.  Have a nice day.  *
        *                                                           *
        *************************************************************


