                  Welcome to Q-Chem
     A Quantum Leap Into The Future Of Chemistry


 Q-Chem 6.0 (devel), Q-Chem, Inc., Pleasanton, CA (2022)

 E. Epifanovsky,  A. T. B. Gilbert,  Xintian Feng,  Joonho Lee,  Yuezhi Mao,  
 N. Mardirossian,  P. Pokhilko,  A. White,  M. Wormit,  M. P. Coons,  
 A. L. Dempwolff,  Zhengting Gan,  D. Hait,  P. R. Horn,  L. D. Jacobson,  
 I. Kaliman,  J. Kussmann,  A. W. Lange,  Ka Un Lao,  D. S. Levine,  Jie Liu,  
 S. C. McKenzie,  A. F. Morrison,  K. Nanda,  F. Plasser,  D. R. Rehn,  
 M. L. Vidal,  Zhi-Qiang You,  Ying Zhu,  B. Alam,  B. Albrecht,  
 A. Aldossary,  E. Alguire,  J. H. Andersen,  V. Athavale,  D. Barton,  
 K. Begam,  A. Behn,  N. Bellonzi,  Y. A. Bernard,  E. J. Berquist,  
 H. Burton,  A. Carreras,  K. Carter-Fenk,  Romit Chakraborty,  
 Chandrima Chakravarty,  Junhan Chen,  A. D. Chien,  K. D. Closser,  
 V. Cofer-Shabica,  L. Cunha,  S. Dasgupta,  Jia Deng,  M. de Wergifosse,  
 M. Diedenhofen,  Hainam Do,  S. Ehlert,  Po-Tung Fang,  S. Fatehi,  
 Qingguo Feng,  T. Friedhoff,  B. Ganoe,  J. Gayvert,  Qinghui Ge,  
 G. Gidofalvi,  M. Goldey,  J. Gomes,  C. Gonzalez-Espinoza,  S. Gulania,  
 A. Gunina,  J. A. Gyamfi,  M. W. D. Hanson-Heine,  P. H. P. Harbach,  
 A. W. Hauser,  M. F. Herbst,  M. Hernandez Vera,  M. Hodecker,  
 Z. C. Holden,  S. Houck,  Xunkun Huang,  Kerwin Hui,  B. C. Huynh,  
 K. Ikeda,  M. Ivanov,  Hyunjun Ji,  Zuxin Jin,  Hanjie Jiang,  B. Kaduk,  
 S. Kaehler,  R. Kang,  K. Khistyaev,  Jaehoon Kim,  Yongbin Kim,  
 P. Klunzinger,  Z. Koczor-Benda,  Joong Hoon Koh,  D. Kosenkov,  
 Saikiran Kotaru,  L. Koulias,  T. Kowalczyk,  C. M. Krauter,  K. Kue,  
 A. Kunitsa,  T. Kus,  A. Landau,  K. V. Lawler,  D. Lefrancois,  S. Lehtola,  
 Rain Li,  Shaozhi Li,  Yi-Pei Li,  Jiashu Liang,  M. Liebenthal,  
 Hung-Hsuan Lin,  You-Sheng Lin,  Fenglai Liu,  Kuan-Yu Liu,  
 M. Loipersberger,  A. Luenser,  C. Malbon,  A. Manjanath,  P. Manohar,  
 E. Mansoor,  S. F. Manzer,  Shan-Ping Mao,  A. V. Marenich,  T. Markovich,  
 S. Mason,  F. Matz,  S. A. Maurer,  P. F. McLaughlin,  M. F. S. J. Menger,  
 J.-M. Mewes,  S. A. Mewes,  P. Morgante,  Mohammad Mostafanejad,  
 J. W. Mullinax,  K. J. Oosterbaan,  G. Paran,  V. Parravicini,  
 Alexander C. Paul,  Suranjan K. Paul,  F. Pavosevic,  Zheng Pei,  S. Prager,  
 E. I. Proynov,  E. Ramos,  B. Rana,  A. E. Rask,  A. Rettig,  R. M. Richard,  
 F. Rob,  E. Rossomme,  T. Scheele,  M. Scheurer,  M. Schneider,  
 P. E. Schneider,  N. Sergueev,  S. M. Sharada,  Hengyuan Shen,  
 W. Skomorowski,  D. W. Small,  C. J. Stein,  Yingli Su,  Yu-Chuan Su,  
 E. J. Sundstrom,  Zhen Tao,  J. Thirman,  Hung-Yi Tsai,  T. Tsuchimochi,  
 N. M. Tubman,  C. Utku,  S. P. Veccham,  O. Vydrov,  J. Wenzel,  
 Jonathan Wong,  J. Witte,  A. Yamada,  Chou-Hsun Yang,  Kun Yao,  
 S. Yeganeh,  S. R. Yost,  A. Zech,  F. Zeller,  Igor Ying Zhang,  
 Xing Zhang,  Yu Zhang,  D. Zuev,  A. Aspuru-Guzik,  A. T. Bell,  
 N. A. Besley,  K. B. Bravaya,  B. R. Brooks,  D. Casanova,  Jeng-Da Chai,  
 Hsing-Ta Chen,  S. Coriani,  C. J. Cramer,  A. E. DePrince, III,  
 R. A. DiStasio Jr.,  A. Dreuw,  B. D. Dunietz,  T. R. Furlani,  
 W. A. Goddard III,  S. Grimme,  S. Hammes-Schiffer,  T. Head-Gordon,  
 W. J. Hehre,  Chao-Ping Hsu,  T.-C. Jagau,  Yousung Jung,  A. Klamt,  
 Jing Kong,  D. S. Lambrecht,  Xiangyuan Li,  WanZhen Liang,  N. J. Mayhall,  
 C. W. McCurdy,  J. B. Neaton,  T. Neudecker,  C. Ochsenfeld,  
 J. A. Parkhill,  R. Peverati,  V. A. Rassolov,  Haisheng Ren,  Yihan Shao,  
 L. V. Slipchenko,  R. P. Steele,  J. E. Subotnik,  A. J. W. Thom,  
 A. Tkatchenko,  D. G. Truhlar,  T. Van Voorhis,  Fan Wang,  
 T. A. Wesolowski,  K. B. Whaley,  H. L. Woodcock III,  P. M. Zimmerman,  
 S. Faraji,  P. M. W. Gill,  M. Head-Gordon,  J. M. Herbert,  A. I. Krylov

 Contributors to earlier versions of Q-Chem not listed above: 
 R. D. Adamson,  B. Austin,  R. Baer,  J. Baker,  G. J. O. Beran,  
 K. Brandhorst,  S. T. Brown,  E. F. C. Byrd,  Arup K. Chakraborty,  
 G. K. L. Chan,  Chun-Min Chang,  Yunqing Chen,  C.-L. Cheng,  
 Siu Hung Chien,  D. M. Chipman,  D. L. Crittenden,  H. Dachsel,  
 R. J. Doerksen,  A. D. Dutoi,  R. G. Edgar,  J. Fosso-Tande,  
 L. Fusti-Molnar,  D. Ghosh,  A. Ghysels,  A. Golubeva-Zadorozhnaya,  
 J. Gonthier,  M. S. Gordon,  S. R. Gwaltney,  G. Hawkins,  J. E. Herr,  
 A. Heyden,  S. Hirata,  E. G. Hohenstein,  G. Kedziora,  F. J. Keil,  
 C. Kelley,  Jihan Kim,  R. A. King,  R. Z. Khaliullin,  P. P. Korambath,  
 W. Kurlancheek,  A. Laurent,  A. M. Lee,  M. S. Lee,  S. V. Levchenko,  
 Ching Yeh Lin,  D. Liotard,  E. Livshits,  R. C. Lochan,  I. Lotan,  
 L. A. Martinez-Martinez,  P. E. Maslen,  N. Nair,  D. P. O'Neill,  
 D. Neuhauser,  E. Neuscamman,  C. M. Oana,  R. Olivares-Amaya,  R. Olson,  
 T. M. Perrine,  B. Peters,  P. A. Pieniazek,  A. Prociuk,  Y. M. Rhee,  
 J. Ritchie,  M. A. Rohrdanz,  E. Rosta,  N. J. Russ,  H. F. Schaefer III,  
 M. W. Schmidt,  N. E. Schultz,  S. Sharma,  N. Shenvi,  C. D. Sherrill,  
 A. C. Simmonett,  A. Sodt,  T. Stein,  D. Stuck,  K. S. Thanthiriwatte,  
 V. Vanovschi,  L. Vogt,  Tao Wang,  A. Warshel,  M. A. Watson,  
 C. F. Williams,  Q. Wu,  X. Xu,  Jun Yang,  W. Zhang,  Yan Zhao

   Please cite Q-Chem as follows:
  "Software for the frontiers of quantum chemistry:
   An overview of developments in the Q-Chem 5 package"
   J. Chem. Phys. 155, 084801 (2021)
   https://doi.org/10.1063/5.0055522 (open access)

 Q-Chem 6.0.1 for Intel X86 EM64T Linux

 Parts of Q-Chem use Armadillo 9.900.5 (Nocturnal Misbehaviour).
 http://arma.sourceforge.net/

 Q-Chem begins on Tue Apr 16 09:52:50 2024  

 Host: atlas-313
0

     Scratch files written to ./qchem40080//
 Processing $rem in /scratch/abel/SOFTWARE/qchem/config/preferences:
 Processing $rem in /dipc/acebg/.qchemrc:

 Checking the input file for inconsistencies... 	...done.

--------------------------------------------------------------
User input:
--------------------------------------------------------------
$comment
 RAS-SF CALCULATION
$end

$molecule
READ doublet_2Tm.molecule
$end

$rem
!**CALCULATION TYPE***     
JOBTYPE            sp    
EXCHANGE           HF
CORRELATION        RASCI    !RASCI=Casanova; RASCI2=Zimmerman
BASIS              cc-pVQZ
BASIS2             STO-3G

!***SCF REFERENCE***
!SKIP_SCFMAN        FALSE
UNRESTRICTED       FALSE
!SCF_GUESS          core
!SCF_GUESS_MIX      FALSE
!SCF_GUESS_ALWAYS   FALSE
MAX_SCF_CYCLES      999
!SCF_CONVERGENCE    10
SCF_ALGORITHM       DM !DIIS,DM,DIIS_DM,GDM,DIIS_GDM,GD

!SYMMETRY           TRUE   !use of symmetry for calculating integrals
!SYM_IGNORE         FALSE  !turn off using symmetry
!SYM_TOL            5      !tolerance for determining point group
!USE_ABELIAN_SUBGROUP      !define to use abelian group

!THRESH             14
!SCF_FINAL_PRINT     1 !0,1,2,3

!****RAS-SF****
RAS_ROOTS          20       !number of RAS-CI roots to be computed
SET_ITER           150     !number of iterations in RASCI
RAS_ELEC 7
RAS_ELEC_ALPHA 4
RAS_ELEC_BETA 3

RAS_ACT 7
RAS_ACT_ORB [41, 42, 43, 44, 45, 47, 48]
RAS_OCC 40
!N_FROZEN_CORE      FC     !Number of frozen core orbitals
!N_FROZEN_VIRTUAL   0      !Number of frozen virtual orbitals

!RAS_DO_HOLE        TRUE   !presence of hole excitations in RAS-CI wave function
!RAS_DO_PART        TRUE   !presence of particle excitations
!RAS_AMPL_PRINT     10     !threshold (×10 2 ) for the CI amplitudes

!RAS_GUESS_CS       0      !number of closed shell guess conﬁgurations
!RAS_SPIN_MULT      0      !spin multiplicity. Only for Ms = 0 
!RAS_SRDFT          FALSE  !short-range density functional RAS-CI
!RAS_NFRAG          0     !fragments of excitation analysis in RASCI

RAS_PRINT          2      !level of information
!RAS_NATORB         TRUE   !computation of the natural orbital occupancies
!RAS_NATORB_STATE  0      !Saves NO of i RAS computed state in .fchk ﬁle
!RAS_FOD            TRUE

!****RAS-SOC****
CALC_SOC           TRUE   !calculate SOC for EOM-CC, RAS-CI, ADC, TDDFT/TDA and TDDFT
!RAS_SOC_2E        TRUE   !two-electron mean-ﬁeld contribution, default=true
RAS_SOC_SYM_DENS   TRUE   !averaging of α and β densities

!****MEMORY****
MEM_TOTAL          60000 !Default 2000 MB
MEM_STATIC         20000  !Default 64 MB

!**Molecular Properties and Analysis **                                                                                          
!POP_MULLIKEN       TRUE   !Run Mulliken population analysis
!LOWDIN_POPULATION  TRUE   !Run Löwdin population analysis
!GUI                0       !Checkpoints generation
STATE_ANALYSIS     TRUE

!**Wave function analysis of RAS-CI states: MOLDEN**
!PLOTS = 0     ! Note: This can be omitted, default is 0
!NTO_PAIRS = 2 ! Note: This can be omitted, default is 2
!GUI 0
!MOLDEN_FORMAT      TRUE
!PRINT_ORBITALS     15

!**Wave function analysis of RAS-CI state: CUBE**
!NTO_PAIRS = 2 ! Note: This can be omitted, default is 2
!PLOTS = 1
!GUI 0

!**SR-DFT**
!RAS_SRDFT           TRUE !Perform short-range density functional RAS-CI
!RAS_SRDFT_EXC       0 !EX functional. 0=HF. 
!RAS_SRDFT_ONLY_COR  TRUE !No use of EXC functional
!RAS_SRDFT_COR       srPBE !short-range correlation functional
!ras_srdft_0         TRUE !true: no iteration (one-shot); false: iteration
!RAS_OMEGA           400 !Coulomb range-separation parameter. def=400
!RAS_SRDFT_DAMP     0.5 !dumping factor. def=0.5
$end

!$plots
!   grid_points 100 100 100
!   grid_range  (-10,10) (-10,10) (-10,10)
!$end

--------------------------------------------------------------
 ----------------------------------------------------------------
             Standard Nuclear Orientation (Angstroms)
    I     Atom           X                Y                Z
 ----------------------------------------------------------------
    1      C       0.6243679838    -2.7362621432     0.0003164261
    2      C      -0.7015735948    -2.3361348215    -0.0001649656
    3      C      -1.0419824835    -0.9670971198    -0.0008439034
    4      C      -0.0000548132     0.0000772801    -0.0007831605
    5      C       1.3584588456    -0.4190204443    -0.0006995145
    6      C       1.6452104651    -1.8007803647     0.0005070396
    7      H       2.6803978057    -2.1201859378     0.0010792188
    8      C      -2.3824177811    -0.5244633738    -0.0001682759
    9      C      -2.6817315780     0.8273312149     0.0010471198
   10      C      -1.6726421175     1.7759152657     0.0004904235
   11      C      -0.3163469004     1.3862234269    -0.0005293069
   12      C       0.7367752863     2.3252776938    -0.0005747718
   13      C       2.0576065541     1.9084870347     0.0003141988
   14      C       2.3743006152     0.5606173675     0.0003067751
   15      H       0.8642366403    -3.7915666760     0.0017549180
   16      H      -1.4954579885    -3.0731591179    -0.0014156115
   17      H      -3.1763935341    -1.2613339838    -0.0004689351
   18      H      -3.7163564276     1.1467917750     0.0019081870
   19      H      -1.9134249087     2.8315998155     0.0005558156
   20      H       3.4093648619     0.2407464211     0.0016850583
   21      H       0.4965831230     3.3810858808    -0.0007420755
   22      H       2.8512275382     2.6449957256     0.0003349189
 ----------------------------------------------------------------
 Molecular Point Group                 C1    NOp =  1
 Largest Abelian Subgroup              C1    NOp =  1
 Nuclear Repulsion Energy =         700.08505759 hartrees
 There are       44 alpha and       43 beta electrons
 Requested basis set is cc-pVQZ
 There are 285 shells and 985 basis functions

 Q-Chem warning in module libmdc/get_mega.C, line 167:

 Allowed MEM_STATIC has been capped at MEM_STATIC=8191.
 Reduce the value of MEM_STATIC to silence this warning.


 Total QAlloc Memory Limit  60000 MB
 Mega-Array Size      8007 MB
 MEM_STATIC part      8191 MB

 A cutoff of  1.0D-09 yielded  28164 shell pairs
 There are    323428 function pairs (    493996 Cartesian)
 Smallest overlap matrix eigenvalue = 3.21E-06

 Q-Chem warning in module stvman/mkSTV.C, line 313:

 Overlap eigenvalue is smaller than square root of threshold
 Use THRESH >= 12 to get rid of this warning


 Scale SEOQF with 1.000000e-01/1.000000e-01/1.000000e+00

 Standard Electronic Orientation quadrupole field applied
 Nucleus-field energy     =     0.0000000272 hartrees
 Requested basis set is STO-3G
 There are 35 shells and 74 basis functions
 A cutoff of  1.0D-09 yielded    531 shell pairs
 There are      2718 function pairs
 Smallest overlap matrix eigenvalue = 1.69E-01
 Constructing guess Fock matrix from core Hamiltonian
 Applying Wolfsberg-Helmholtz approximation
 A restricted Hartree-Fock SCF calculation will be
 performed using direct minimization
 SCF converges when RMS gradient is below 1.0E-04
 ---------------------------------------
  Cycle       Energy        RMS Gradient
 ---------------------------------------
    1    -490.2238037751      1.83E-01
    2    -491.2481228090      7.01E-02
    3    -491.4534465644      8.33E-03
    4    -491.4622667695      1.82E-03
    5    -491.4624331728      4.60E-04
    6    -491.4624601132      1.31E-04
    7    -491.4624614880      3.54E-05 Convergence criterion met
 ---------------------------------------
 SCF time:  CPU 0.56 s  wall 0.82 s
 SCF   energy in the small basis set = -491.46246149
 Total energy in the small basis set = -491.46246149
 ----------------------------------------------------
  Cycle       Energy    
 ----------------------------------------------------
    1     -63.7545505913     -6.38E+01
 A restricted Hartree-Fock SCF calculation will be
 performed using direct minimization
 SCF converges when RMS gradient is below 1.0E-05
 ---------------------------------------
  Cycle       Energy        RMS Gradient
 ---------------------------------------
    1    -497.5340545620      1.56E-02
    2    -497.6728705674      6.10E-03
    3    -497.6728652310      6.10E-03 Try steepest descent ste
    4    -497.7037420054      5.45E-01 BFGS subspace was reset
    5    -497.1307345045      4.03E-02
    6    -497.7027400320      5.06E-03
    7    -497.7092197629      3.32E-04
    8    -497.7093272788      2.03E-04
    9    -497.7093822314      2.73E-05
   10    -497.7093848052      1.32E-05
   11    -497.7093859095      3.35E-06 Convergence criterion met
 ---------------------------------------
 SCF time:  CPU 12973.70 s  wall 13005.98 s
 SCF   energy in the final basis set = -497.70938591
 Total energy in the final basis set = -497.70938591
  
     ##========================================##
     ||                                        ||
     ||              R A S M A N 2             ||
     ||________________________________________||
     ||                                        ||
     ||  Author:                               ||
     ||                                        ||
     ||        David Casanova (2010)           ||
     ||                                        ||
     ##========================================##
  
Setting single-point xc-functionals (if necessary)

  ***************************************************
  *  RAS-CI Dimensions:                             *
  *                                                 *
  *  Active Elec.:   7 ( 4, 3)   Active Orb.:   7   *
  *  Doubly Occ. :  40           Doubly Vir.: 938   *
  *  Frozen Occ. :   0           Frozen Vir.:   0   *
  *                                                 *
  *  Total CI configurations:   1918105             * 
  *    Active configurations:      1225             * 
  *      Hole configurations:     78400             * 
  *  Particle configurations:   1838480             * 
  *                                                 *
  *   Requested states:       20                    *
  *  Spin multiplicity: Any multiplicity            *
  *                                                 *
  ***************************************************
-----------------------------------------
    Memory requirements of RASCI

 Each CI-vector requires     14.63 MiB 
 Max. subspace vectors           3000      

 Reduced Lists                0.00 MiB 
 Excitation Lists             0.00 MiB 
 Excitation Lists Sign        0.00 MiB 
 CI-space (Max)           44263.31 MiB 
 Integrals                  859.60 MiB 
 Memory required (Max)    44263.31 MiB 
 Memory available          7811.55 MiB 

 Q-Chem warning in module rasman2/ras_mem_check.C, line 162:

 Static memory may be insufficient to store the subspace vectors


    Disk requirements of RASCI

 Fock matrix                 14.80 MiB 
 2-electron integrals      1351.29 MiB 
 CI-space                 87803.88 MiB 
 Disk required            89169.97 MiB 
-----------------------------------------
  
RAS1 HF-like energy:           -491.3177262297
 Computing integrals
 Computing J and K matrices
 Computing addressing
 Making amplitude guesses
 
Direct CI diagonalization
 ---------------------------------------------------
 Iter    Rts Conv    Rts Left    Ttl Dev     Max Dev
 ---------------------------------------------------
   1         0          20      0.003127    0.000189
   2         0          20      0.001598    0.000105
   3         0          20      0.001226    0.000104
   4         0          20      0.001081    0.000112
   5         0          20      0.000717    0.000080
   6         0          20      0.000629    0.000075
   7         0          20      0.000695    0.000146
   8         0          20      0.000670    0.000149
   9         0          20      0.000514    0.000120
  10         0          20      0.000436    0.000095
  11         0          20      0.000402    0.000100
  12         1          19      0.000422    0.000099
  13         1          19      0.000552    0.000113
  14         1          19      0.000622    0.000122
  15         5          15      0.000527    0.000110
  16         5          15      0.000530    0.000104
  17         5          15      0.000480    0.000104
  18         9          11      0.000445    0.000099
  19        12           8      0.000410    0.000092
  20        12           8      0.000334    0.000074
  21        11           9      0.000252    0.000053
  22        11           9      0.000192    0.000036
  23        12           8      0.000154    0.000031
  24        12           8      0.000130    0.000027
  25        12           8      0.000102    0.000021
  26        12           8      0.000076    0.000015
  27        12           8      0.000059    0.000011
  28        12           8      0.000052    0.000011
  29        14           6      0.000060    0.000020
  30        14           6      0.000073    0.000027
  31        15           5      0.000061    0.000024
  32        15           5      0.000048    0.000019
  33        15           5      0.000040    0.000015
  34        15           5      0.000035    0.000013
  35        16           4      0.000032    0.000012
  36        18           2      0.000028    0.000011
  37        18           2      0.000024    0.000009
  38        18           2      0.000021    0.000007
  39        18           2      0.000019    0.000005
  40        18           2      0.000017    0.000005
  41        18           2      0.000016    0.000004
  42        18           2      0.000014    0.000003
  43        18           2      0.000012    0.000003
  44        18           2      0.000011    0.000002
  45        18           2      0.000011    0.000001
  46        18           2      0.000010    0.000001
  47        20           0      0.000009    0.000001    Roots Converged
 ---------------------------------------------------
   
**************************************************
 RAS-CI total energy for state   1:   -497.791730058591
  Excitation energy (eV) =  0.000000000000
  State symmetry: A1  (C1       )
  <S^2>      :  0.7500
  Dipole Moment:   -0.0002 X     0.0001 Y    -0.0006 Z
 NATURAL OCCUPATION NUMBERS (higher than 1.0E-05)
            1           2           3           4           5           6
    1   2.0000000   2.0000000   2.0000000   2.0000000   2.0000000   2.0000000
            7           8           9          10          11          12
    1   2.0000000   2.0000000   2.0000000   2.0000000   2.0000000   2.0000000
           13          14          15          16          17          18
    1   2.0000000   2.0000000   2.0000000   2.0000000   2.0000000   2.0000000
           19          20          21          22          23          24
    1   2.0000000   2.0000000   2.0000000   2.0000000   2.0000000   2.0000000
           25          26          27          28          29          30
    1   2.0000000   2.0000000   2.0000000   2.0000000   2.0000000   2.0000000
           31          32          33          34          35          36
    1   2.0000000   2.0000000   2.0000000   2.0000000   2.0000000   2.0000000
           37          38          39          40          41          42
    1   2.0000000   1.9984270   1.9939261   1.9939188   1.9437500   1.9337896
           43          44          45          46          47          48
    1   1.9337704   1.0010308   0.0624177   0.0623883   0.0524118   0.0065133
           49          50          51          52          53          54
    1   0.0065015   0.0019225   0.0011884   0.0011881   0.0010471   0.0009055
           55          56          57          58          59          60
    1   0.0009045   0.0007822   0.0004994   0.0003841   0.0003838   0.0002961
           61          62          63          64          65          66
    1   0.0002233   0.0002103   0.0002101   0.0001756   0.0001754   0.0001336
           67          68          69          70          71          72
    1   0.0001336   0.0001304   0.0001063   0.0000214   0.0000214   0.0000140
           73          74
    1   0.0000139   0.0000139

 Head-Gordon Nu:    1.40
 Head-Gordon Nu_nl: 1.09
 Created directory ./qchem40080/plots

  Amplitudes : 
  
 | HOLE  | ALPHA   | BETA    | PART  |    AMPLITUDE 
--------------------------------------------------
 |       | 1111000 | 1110000 |       |     9.3499033385666E-01
--------------------------------------------------
*** Contributions RASCI wfn    Active:  95.38
                                 Hole:   1.41
                                 Part:   3.21

      Mulliken population analysis 
 ---------------------------------------------------
   Atom    Charge (a.u.)   Spin (a.u.)  
 ---------------------------------------------------
   1  C   -0.143202       -0.032255 
   2  C   -0.173117        0.194368 
   3  C    0.079010       -0.031878 
   4  C    0.003290        0.004104 
   5  C    0.079544       -0.031844 
   6  C   -0.173128        0.193984 
   7  H    0.129402        0.003754 
   8  C   -0.173390        0.194968 
   9  C   -0.142468       -0.032425 
  10  C   -0.173849        0.195436 
  11  C    0.078865       -0.031940 
  12  C   -0.173135        0.194893 
  13  C   -0.143199       -0.032347 
  14  C   -0.172950        0.194404 
  15  H    0.150130       -0.000693 
  16  H    0.129781        0.003762 
  17  H    0.129710        0.003774 
  18  H    0.149514       -0.000696 
  19  H    0.129897        0.003786 
  20  H    0.129775        0.003763 
  21  H    0.130038        0.003776 
  22  H    0.149480       -0.000694 
 ---------------------------------------------------
   Sum:   -0.000000        1.000000 
 ---------------------------------------------------
 
*** Unpaired Electrons
 Yamaguchi Nd:         1.78
  
**************************************************
 RAS-CI total energy for state   2:   -497.689320918677
  Excitation energy (eV) =  2.786694479654
  State symmetry: A1  (C1       )
  <S^2>      :  0.7500
  Dipole Moment:   -0.0319 X     0.0074 Y    -0.0007 Z
  Trans. Moment:    0.0075 X    -0.0023 Y    -0.0000 Z
  Strength   :  0.000004
  Natural transition orbitals ( 1 -> 2 ):
   e-/hole pair  1 alpha:  ampl =  0.648113 ( 42.0%)   [7 : 8]
   e-/hole pair  2 alpha:  ampl =  0.085038 (  0.7%)   [6 : 9]
   e-/hole pair  1 beta :  ampl =  0.615042 ( 37.8%)   [7 : 8]
   e-/hole pair  2 beta :  ampl =  0.086855 (  0.8%)   [6 : 9]
   Sum of square amplitudes: 0.84

 NATURAL OCCUPATION NUMBERS (higher than 1.0E-05)
            1           2           3           4           5           6
    1   2.0000000   2.0000000   2.0000000   2.0000000   2.0000000   2.0000000
            7           8           9          10          11          12
    1   2.0000000   2.0000000   2.0000000   2.0000000   2.0000000   2.0000000
           13          14          15          16          17          18
    1   2.0000000   2.0000000   2.0000000   2.0000000   2.0000000   2.0000000
           19          20          21          22          23          24
    1   2.0000000   2.0000000   2.0000000   2.0000000   2.0000000   2.0000000
           25          26          27          28          29          30
    1   2.0000000   2.0000000   2.0000000   2.0000000   2.0000000   2.0000000
           31          32          33          34          35          36
    1   2.0000000   2.0000000   2.0000000   2.0000000   2.0000000   2.0000000
           37          38          39          40          41          42
    1   2.0000000   1.9967323   1.9866277   1.9817972   1.9364329   1.9312955
           43          44          45          46          47          48
    1   1.5014897   0.9615761   0.5389137   0.0637182   0.0584556   0.0175371
           49          50          51          52          53          54
    1   0.0132282   0.0031712   0.0012115   0.0010347   0.0009804   0.0009236
           55          56          57          58          59          60
    1   0.0009077   0.0006620   0.0005270   0.0004203   0.0003586   0.0002791
           61          62          63          64          65          66
    1   0.0002470   0.0002218   0.0001841   0.0001654   0.0001592   0.0001565
           67          68          69          70          71          72
    1   0.0001480   0.0001121   0.0001012   0.0000357   0.0000307   0.0000220
           73          74          75          76
    1   0.0000184   0.0000176   0.0000155   0.0000134

 Head-Gordon Nu:    2.33
 Head-Gordon Nu_nl: 2.24

  Amplitudes : 
  
 | HOLE  | ALPHA   | BETA    | PART  |    AMPLITUDE 
--------------------------------------------------
 |       | 1111000 | 1101000 |       |    -5.8523326079949E-01
 |       | 1111000 | 1011000 |       |    -2.3893397482240E-01
 |       | 1110010 | 1110000 |       |     6.4306407212593E-01
 |       | 1110001 | 1110000 |       |    -1.4950937827958E-01
--------------------------------------------------
*** Contributions RASCI wfn    Active:  90.04
                                 Hole:   4.12
                                 Part:   5.84

      Mulliken population analysis 
 ---------------------------------------------------
   Atom    Charge (a.u.)   Spin (a.u.)  
 ---------------------------------------------------
   1  C   -0.143370        0.137114 
   2  C   -0.170229       -0.031248 
   3  C    0.066772        0.209766 
   4  C    0.003585       -0.026545 
   5  C    0.076992       -0.001116 
   6  C   -0.165876        0.083791 
   7  H    0.128708        0.001769 
   8  C   -0.167543        0.122125 
   9  C   -0.140790       -0.020383 
  10  C   -0.167686        0.131053 
  11  C    0.067372        0.194001 
  12  C   -0.170185       -0.035182 
  13  C   -0.143472        0.149692 
  14  C   -0.165932        0.071201 
  15  H    0.148592        0.003746 
  16  H    0.129717       -0.000664 
  17  H    0.128488        0.003124 
  18  H    0.149190       -0.000293 
  19  H    0.128620        0.003319 
  20  H    0.129175        0.001460 
  21  H    0.130021       -0.000792 
  22  H    0.147851        0.004063 
 ---------------------------------------------------
   Sum:   -0.000000        1.000000 
 ---------------------------------------------------
 
*** Unpaired Electrons
 Yamaguchi Nd:         3.18
  
**************************************************
 RAS-CI total energy for state   3:   -497.689290772692
  Excitation energy (eV) =  2.787514793647
  State symmetry: A1  (C1       )
  <S^2>      :  0.7500
  Dipole Moment:    0.0324 X    -0.0079 Y    -0.0007 Z
  Trans. Moment:    0.0025 X     0.0070 Y    -0.0000 Z
  Strength   :  0.000004
  Natural transition orbitals ( 1 -> 3 ):
   e-/hole pair  1 alpha:  ampl =  0.647965 ( 42.0%)   [7 : 8]
   e-/hole pair  2 alpha:  ampl =  0.086256 (  0.7%)   [6 : 9]
   e-/hole pair  1 beta :  ampl =  0.615131 ( 37.8%)   [7 : 8]
   e-/hole pair  2 beta :  ampl =  0.087958 (  0.8%)   [6 : 9]
   Sum of square amplitudes: 0.84

 NATURAL OCCUPATION NUMBERS (higher than 1.0E-05)
            1           2           3           4           5           6
    1   2.0000000   2.0000000   2.0000000   2.0000000   2.0000000   2.0000000
            7           8           9          10          11          12
    1   2.0000000   2.0000000   2.0000000   2.0000000   2.0000000   2.0000000
           13          14          15          16          17          18
    1   2.0000000   2.0000000   2.0000000   2.0000000   2.0000000   2.0000000
           19          20          21          22          23          24
    1   2.0000000   2.0000000   2.0000000   2.0000000   2.0000000   2.0000000
           25          26          27          28          29          30
    1   2.0000000   2.0000000   2.0000000   2.0000000   2.0000000   2.0000000
           31          32          33          34          35          36
    1   2.0000000   2.0000000   2.0000000   2.0000000   2.0000000   2.0000000
           37          38          39          40          41          42
    1   2.0000000   1.9966737   1.9847108   1.9832199   1.9349471   1.9344231
           43          44          45          46          47          48
    1   1.4994889   0.9613655   0.5413760   0.0613818   0.0588452   0.0161713
           49          50          51          52          53          54
    1   0.0151925   0.0031266   0.0012077   0.0010470   0.0010187   0.0009239
           55          56          57          58          59          60
    1   0.0008959   0.0006741   0.0004877   0.0004762   0.0003527   0.0002798
           61          62          63          64          65          66
    1   0.0002455   0.0002090   0.0001964   0.0001825   0.0001541   0.0001508
           67          68          69          70          71          72
    1   0.0001267   0.0001190   0.0001061   0.0000405   0.0000252   0.0000238
           73          74          75          76          77
    1   0.0000164   0.0000159   0.0000153   0.0000149   0.0000112

 Head-Gordon Nu:    2.33
 Head-Gordon Nu_nl: 2.25

  Amplitudes : 
  
 | HOLE  | ALPHA   | BETA    | PART  |    AMPLITUDE 
--------------------------------------------------
 |       | 1111000 | 1101000 |       |     2.3898952960750E-01
 |       | 1111000 | 1011000 |       |    -5.8520540148624E-01
 |       | 1110010 | 1110000 |       |     1.4956970566271E-01
 |       | 1110001 | 1110000 |       |     6.4271826000811E-01
--------------------------------------------------
*** Contributions RASCI wfn    Active:  90.04
                                 Hole:   4.12
                                 Part:   5.84

      Mulliken population analysis 
 ---------------------------------------------------
   Atom    Charge (a.u.)   Spin (a.u.)  
 ---------------------------------------------------
   1  C   -0.142272        0.040948 
   2  C   -0.165298        0.145740 
   3  C    0.073753        0.058415 
   4  C    0.003548       -0.026550 
   5  C    0.064605        0.269632 
   6  C   -0.169707        0.030296 
   7  H    0.128804        0.000969 
   8  C   -0.168528       -0.008601 
   9  C   -0.143235        0.197521 
  10  C   -0.169305       -0.017471 
  11  C    0.072867        0.074242 
  12  C   -0.165379        0.149404 
  13  C   -0.142098        0.028262 
  14  C   -0.169317        0.042433 
  15  H    0.149337        0.001276 
  16  H    0.128547        0.003416 
  17  H    0.129647       -0.000396 
  18  H    0.147523        0.005285 
  19  H    0.129883       -0.000584 
  20  H    0.129087        0.001268 
  21  H    0.128757        0.003542 
  22  H    0.148782        0.000952 
 ---------------------------------------------------
   Sum:   -0.000000        1.000000 
 ---------------------------------------------------
 
*** Unpaired Electrons
 Yamaguchi Nd:         3.18
  
**************************************************
 RAS-CI total energy for state   4:   -497.679987156116
  Excitation energy (eV) =  3.040679081274
  State symmetry: A1  (C1       )
  <S^2>      :  0.7500
  Dipole Moment:    0.0003 X    -0.0005 Y    -0.0009 Z
  Trans. Moment:   -0.0001 X    -0.0001 Y     0.0000 Z
  Strength   :  0.000000
  Natural transition orbitals ( 1 -> 4 ):
   e-/hole pair  1 alpha:  ampl =  0.717287 ( 51.5%)   [7 : 8]
   e-/hole pair  2 alpha:  ampl =  0.083802 (  0.7%)   [6 : 9]
   e-/hole pair  1 beta :  ampl =  0.514932 ( 26.5%)   [7 : 8]
   e-/hole pair  2 beta :  ampl =  0.075836 (  0.6%)   [6 : 9]
   Sum of square amplitudes: 0.81

 NATURAL OCCUPATION NUMBERS (higher than 1.0E-05)
            1           2           3           4           5           6
    1   2.0000000   2.0000000   2.0000000   2.0000000   2.0000000   2.0000000
            7           8           9          10          11          12
    1   2.0000000   2.0000000   2.0000000   2.0000000   2.0000000   2.0000000
           13          14          15          16          17          18
    1   2.0000000   2.0000000   2.0000000   2.0000000   2.0000000   2.0000000
           19          20          21          22          23          24
    1   2.0000000   2.0000000   2.0000000   2.0000000   2.0000000   2.0000000
           25          26          27          28          29          30
    1   2.0000000   2.0000000   2.0000000   2.0000000   2.0000000   2.0000000
           31          32          33          34          35          36
    1   2.0000000   2.0000000   2.0000000   2.0000000   2.0000000   2.0000000
           37          38          39          40          41          42
    1   2.0000000   1.9920912   1.9806282   1.9805181   1.9120068   1.9119826
           43          44          45          46          47          48
    1   1.6409937   0.7417459   0.6379488   0.0730749   0.0730311   0.0197684
           49          50          51          52          53          54
    1   0.0196611   0.0065550   0.0011743   0.0011728   0.0011190   0.0011036
           55          56          57          58          59          60
    1   0.0011014   0.0006571   0.0006566   0.0005182   0.0004845   0.0003644
           61          62          63          64          65          66
    1   0.0002275   0.0002275   0.0001649   0.0001367   0.0001366   0.0001365
           67          68          69          70          71          72
    1   0.0001244   0.0001244   0.0000734   0.0000532   0.0000532   0.0000417
           73          74          75          76
    1   0.0000186   0.0000186   0.0000134   0.0000133

 Head-Gordon Nu:    2.16
 Head-Gordon Nu_nl: 2.08

  Amplitudes : 
  
 | HOLE  | ALPHA   | BETA    | PART  |    AMPLITUDE 
--------------------------------------------------
 |       | 1111000 | 0111000 |       |    -5.2604484791578E-01
 |       | 1110100 | 1110000 |       |     7.2985075464260E-01
 |       | 1101100 | 1101000 |       |    -1.0756236445462E-01
 |       | 1011100 | 1011000 |       |    -1.0737402843535E-01
--------------------------------------------------
*** Contributions RASCI wfn    Active:  88.55
                                 Hole:   4.88
                                 Part:   6.56

      Mulliken population analysis 
 ---------------------------------------------------
   Atom    Charge (a.u.)   Spin (a.u.)  
 ---------------------------------------------------
   1  C   -0.177337        0.164854 
   2  C   -0.147727        0.024943 
   3  C    0.077561        0.017160 
   4  C   -0.034520        0.282499 
   5  C    0.078106        0.016748 
   6  C   -0.147827        0.025567 
   7  H    0.129102        0.001094 
   8  C   -0.147981        0.025518 
   9  C   -0.176653        0.166259 
  10  C   -0.148386        0.025202 
  11  C    0.077397        0.017255 
  12  C   -0.147733        0.024946 
  13  C   -0.177325        0.165219 
  14  C   -0.147607        0.025645 
  15  H    0.148157        0.003876 
  16  H    0.129492        0.001076 
  17  H    0.129411        0.001093 
  18  H    0.147535        0.003905 
  19  H    0.129602        0.001086 
  20  H    0.129474        0.001097 
  21  H    0.129749        0.001077 
  22  H    0.147508        0.003880 
 ---------------------------------------------------
   Sum:   -0.000000        1.000000 
 ---------------------------------------------------
 
*** Unpaired Electrons
 Yamaguchi Nd:         3.21
  
**************************************************
 RAS-CI total energy for state   5:   -497.644862654366
  Excitation energy (eV) =  3.996465402780
  State symmetry: A1  (C1       )
  <S^2>      :  0.7500
  Dipole Moment:   -0.0007 X     0.0009 Y    -0.0008 Z
  Trans. Moment:   -0.0010 X    -0.0015 Y     0.0001 Z
  Strength   :  0.000000
  Natural transition orbitals ( 1 -> 5 ):
   e-/hole pair  1 alpha:  ampl =  0.541929 ( 29.4%)   [7 : 8]
   e-/hole pair  2 alpha:  ampl =  0.041796 (  0.2%)   [6 : 9]
   e-/hole pair  1 beta :  ampl =  0.727917 ( 53.0%)   [7 : 8]
   e-/hole pair  2 beta :  ampl =  0.063407 (  0.4%)   [6 : 9]
   Sum of square amplitudes: 0.84

 NATURAL OCCUPATION NUMBERS (higher than 1.0E-05)
            1           2           3           4           5           6
    1   2.0000000   2.0000000   2.0000000   2.0000000   2.0000000   2.0000000
            7           8           9          10          11          12
    1   2.0000000   2.0000000   2.0000000   2.0000000   2.0000000   2.0000000
           13          14          15          16          17          18
    1   2.0000000   2.0000000   2.0000000   2.0000000   2.0000000   2.0000000
           19          20          21          22          23          24
    1   2.0000000   2.0000000   2.0000000   2.0000000   2.0000000   2.0000000
           25          26          27          28          29          30
    1   2.0000000   2.0000000   2.0000000   2.0000000   2.0000000   2.0000000
           31          32          33          34          35          36
    1   2.0000000   2.0000000   2.0000000   2.0000000   2.0000000   2.0000000
           37          38          39          40          41          42
    1   2.0000000   1.9964407   1.9917573   1.9917363   1.9365276   1.9364971
           43          44          45          46          47          48
    1   1.3442430   1.2646278   0.3784950   0.0650939   0.0650409   0.0066974
           49          50          51          52          53          54
    1   0.0066940   0.0034812   0.0017073   0.0017071   0.0011250   0.0010805
           55          56          57          58          59          60
    1   0.0010798   0.0007861   0.0007857   0.0007846   0.0006118   0.0004691
           61          62          63          64          65          66
    1   0.0003441   0.0003357   0.0003350   0.0002396   0.0002216   0.0002215
           67          68          69          70          71          72
    1   0.0001795   0.0001795   0.0001354   0.0000480   0.0000436   0.0000436
           73          74          75          76          77
    1   0.0000351   0.0000350   0.0000241   0.0000240   0.0000137

 Head-Gordon Nu:    2.08
 Head-Gordon Nu_nl: 2.08

  Amplitudes : 
  
 | HOLE  | ALPHA   | BETA    | PART  |    AMPLITUDE 
--------------------------------------------------
 |       | 1111000 | 0111000 |       |     7.4545836984206E-01
 |       | 1110100 | 1110000 |       |     5.4992004588583E-01
--------------------------------------------------
*** Contributions RASCI wfn    Active:  93.63
                                 Hole:   2.29
                                 Part:   4.08

      Mulliken population analysis 
 ---------------------------------------------------
   Atom    Charge (a.u.)   Spin (a.u.)  
 ---------------------------------------------------
   1  C   -0.111635        0.123002 
   2  C   -0.202300        0.017921 
   3  C    0.084703        0.041685 
   4  C    0.073400        0.388959 
   5  C    0.085274        0.041951 
   6  C   -0.202241        0.017754 
   7  H    0.128231        0.000588 
   8  C   -0.202625        0.017618 
   9  C   -0.110867        0.122369 
  10  C   -0.203146        0.017643 
  11  C    0.084480        0.041518 
  12  C   -0.202308        0.017938 
  13  C   -0.111632        0.122769 
  14  C   -0.202191        0.017634 
  15  H    0.150264        0.002578 
  16  H    0.128606        0.000593 
  17  H    0.128534        0.000585 
  18  H    0.149657        0.002559 
  19  H    0.128718        0.000587 
  20  H    0.128600        0.000585 
  21  H    0.128862        0.000593 
  22  H    0.149617        0.002570 
 ---------------------------------------------------
   Sum:   -0.000000        1.000000 
 ---------------------------------------------------
 
*** Unpaired Electrons
 Yamaguchi Nd:         3.02
  
**************************************************
 RAS-CI total energy for state   6:   -497.621195361932
  Excitation energy (eV) =  4.640485196603
  State symmetry: A1  (C1       )
  <S^2>      :  0.7500
  Dipole Moment:    0.0398 X    -0.1206 Y    -0.0006 Z
  Trans. Moment:   -0.2680 X     1.4931 Y    -0.0003 Z
  Strength   :  0.261623
  Natural transition orbitals ( 1 -> 6 ):
   e-/hole pair  1 alpha:  ampl =  0.612280 ( 37.5%)   [7 : 8]
   e-/hole pair  2 alpha:  ampl =  0.152795 (  2.3%)   [6 : 9]
   e-/hole pair  1 beta :  ampl =  0.637247 ( 40.6%)   [7 : 8]
   e-/hole pair  2 beta :  ampl =  0.147071 (  2.2%)   [6 : 9]
   Sum of square amplitudes: 0.85

 NATURAL OCCUPATION NUMBERS (higher than 1.0E-05)
            1           2           3           4           5           6
    1   2.0000000   2.0000000   2.0000000   2.0000000   2.0000000   2.0000000
            7           8           9          10          11          12
    1   2.0000000   2.0000000   2.0000000   2.0000000   2.0000000   2.0000000
           13          14          15          16          17          18
    1   2.0000000   2.0000000   2.0000000   2.0000000   2.0000000   2.0000000
           19          20          21          22          23          24
    1   2.0000000   2.0000000   2.0000000   2.0000000   2.0000000   2.0000000
           25          26          27          28          29          30
    1   2.0000000   2.0000000   2.0000000   2.0000000   2.0000000   2.0000000
           31          32          33          34          35          36
    1   2.0000000   2.0000000   2.0000000   2.0000000   2.0000000   2.0000000
           37          38          39          40          41          42
    1   2.0000000   1.9957945   1.9890124   1.9888132   1.9073543   1.8905604
           43          44          45          46          47          48
    1   1.4925436   1.0441773   0.4710246   0.1055407   0.0789680   0.0090189
           49          50          51          52          53          54
    1   0.0086595   0.0034881   0.0023292   0.0021015   0.0020841   0.0012159
           55          56          57          58          59          60
    1   0.0010656   0.0009906   0.0007214   0.0005934   0.0005606   0.0005135
           61          62          63          64          65          66
    1   0.0004422   0.0004100   0.0003259   0.0002764   0.0002231   0.0002150
           67          68          69          70          71          72
    1   0.0002075   0.0001793   0.0001544   0.0001148   0.0000720   0.0000440
           73          74          75          76          77          78
    1   0.0000434   0.0000204   0.0000201   0.0000173   0.0000147   0.0000133
           79
    1   0.0000128

 Head-Gordon Nu:    2.38
 Head-Gordon Nu_nl: 2.23

  Amplitudes : 
  
 | HOLE  | ALPHA   | BETA    | PART  |    AMPLITUDE 
--------------------------------------------------
 |       | 1111000 | 1101000 |       |    -5.0030304435696E-01
 |       | 1111000 | 1011000 |       |     3.9842761117421E-01
 |       | 1111000 | 1010100 |       |     1.1439558439984E-01
 |       | 1110010 | 1110000 |       |    -1.7066583587641E-01
 |       | 1110001 | 1110000 |       |     5.8901649375683E-01
 |       | 0111010 | 1110000 |       |    -1.4765775681814E-01
--------------------------------------------------
*** Contributions RASCI wfn    Active:  92.29
                                 Hole:   3.13
                                 Part:   4.57

      Mulliken population analysis 
 ---------------------------------------------------
   Atom    Charge (a.u.)   Spin (a.u.)  
 ---------------------------------------------------
   1  C   -0.129682       -0.018125 
   2  C   -0.183283        0.202589 
   3  C    0.075631        0.103201 
   4  C    0.007364       -0.032792 
   5  C    0.075833        0.113605 
   6  C   -0.183820        0.193325 
   7  H    0.126839        0.005147 
   8  C   -0.180241        0.010960 
   9  C   -0.120572        0.091129 
  10  C   -0.176162        0.092668 
  11  C    0.078019        0.010496 
  12  C   -0.175657        0.112008 
  13  C   -0.122252        0.079604 
  14  C   -0.180679        0.021220 
  15  H    0.150269       -0.000291 
  16  H    0.127175        0.005309 
  17  H    0.128674        0.000270 
  18  H    0.148457        0.002713 
  19  H    0.128465        0.001719 
  20  H    0.128624        0.000620 
  21  H    0.128455        0.002228 
  22  H    0.148544        0.002399 
 ---------------------------------------------------
   Sum:   -0.000000        1.000000 
 ---------------------------------------------------
 
*** Unpaired Electrons
 Yamaguchi Nd:         3.34
  
**************************************************
 RAS-CI total energy for state   7:   -497.621178413646
  Excitation energy (eV) =  4.640946382937
  State symmetry: A1  (C1       )
  <S^2>      :  0.7500
  Dipole Moment:   -0.0399 X     0.1213 Y    -0.0008 Z
  Trans. Moment:    1.4943 X     0.2673 Y    -0.0001 Z
  Strength   :  0.262017
  Natural transition orbitals ( 1 -> 7 ):
   e-/hole pair  1 alpha:  ampl =  0.612202 ( 37.5%)   [7 : 8]
   e-/hole pair  2 alpha:  ampl =  0.151361 (  2.3%)   [6 : 9]
   e-/hole pair  1 beta :  ampl =  0.637429 ( 40.6%)   [7 : 8]
   e-/hole pair  2 beta :  ampl =  0.145858 (  2.1%)   [6 : 9]
   Sum of square amplitudes: 0.85

 NATURAL OCCUPATION NUMBERS (higher than 1.0E-05)
            1           2           3           4           5           6
    1   2.0000000   2.0000000   2.0000000   2.0000000   2.0000000   2.0000000
            7           8           9          10          11          12
    1   2.0000000   2.0000000   2.0000000   2.0000000   2.0000000   2.0000000
           13          14          15          16          17          18
    1   2.0000000   2.0000000   2.0000000   2.0000000   2.0000000   2.0000000
           19          20          21          22          23          24
    1   2.0000000   2.0000000   2.0000000   2.0000000   2.0000000   2.0000000
           25          26          27          28          29          30
    1   2.0000000   2.0000000   2.0000000   2.0000000   2.0000000   2.0000000
           31          32          33          34          35          36
    1   2.0000000   2.0000000   2.0000000   2.0000000   2.0000000   2.0000000
           37          38          39          40          41          42
    1   2.0000000   1.9956197   1.9894541   1.9885491   1.9020374   1.8960555
           43          44          45          46          47          48
    1   1.4922186   1.0431555   0.4746794   0.0975665   0.0844718   0.0096637
           49          50          51          52          53          54
    1   0.0079292   0.0037255   0.0022122   0.0021332   0.0018276   0.0013353
           55          56          57          58          59          60
    1   0.0010662   0.0009992   0.0007461   0.0005926   0.0005683   0.0004859
           61          62          63          64          65          66
    1   0.0004391   0.0004271   0.0003419   0.0002631   0.0002354   0.0002129
           67          68          69          70          71          72
    1   0.0002082   0.0001825   0.0001659   0.0001122   0.0000624   0.0000495
           73          74          75          76          77          78
    1   0.0000439   0.0000214   0.0000198   0.0000174   0.0000155   0.0000143
           79          80
    1   0.0000118   0.0000110

 Head-Gordon Nu:    2.39
 Head-Gordon Nu_nl: 2.23

  Amplitudes : 
  
 | HOLE  | ALPHA   | BETA    | PART  |    AMPLITUDE 
--------------------------------------------------
 |       | 1111000 | 1101000 |       |     3.9850446958616E-01
 |       | 1111000 | 1100100 |       |     1.1420978948394E-01
 |       | 1111000 | 1011000 |       |     5.0029002039290E-01
 |       | 1110010 | 1110000 |       |     5.8887372090756E-01
 |       | 1110001 | 1110000 |       |     1.7064403382731E-01
 |       | 0111001 | 1110000 |       |     1.4819189475470E-01
--------------------------------------------------
*** Contributions RASCI wfn    Active:  92.30
                                 Hole:   3.13
                                 Part:   4.57

      Mulliken population analysis 
 ---------------------------------------------------
   Atom    Charge (a.u.)   Spin (a.u.)  
 ---------------------------------------------------
   1  C   -0.119279        0.119631 
   2  C   -0.176343        0.008132 
   3  C    0.077220        0.048360 
   4  C    0.007327       -0.032818 
   5  C    0.077960        0.037756 
   6  C   -0.175715        0.017594 
   7  H    0.128514       -0.000051 
   8  C   -0.180027        0.200175 
   9  C   -0.126683        0.010868 
  10  C   -0.185166        0.118451 
  11  C    0.074601        0.141143 
  12  C   -0.184049        0.098809 
  13  C   -0.126620        0.022053 
  14  C   -0.178731        0.189735 
  15  H    0.148753        0.003502 
  16  H    0.128934       -0.000217 
  17  H    0.127289        0.004828 
  18  H    0.149336        0.000508 
  19  H    0.127865        0.003382 
  20  H    0.127469        0.004476 
  21  H    0.128166        0.002868 
  22  H    0.149177        0.000815 
 ---------------------------------------------------
   Sum:   -0.000000        1.000000 
 ---------------------------------------------------
 
*** Unpaired Electrons
 Yamaguchi Nd:         3.34
  
**************************************************
 RAS-CI total energy for state   8:   -497.597430159868
  Excitation energy (eV) =  5.287169247041
  State symmetry: A1  (C1       )
  <S^2>      :  0.7500
  Dipole Moment:   -0.0164 X     0.0078 Y    -0.0007 Z
  Trans. Moment:    0.0137 X     0.0604 Y    -0.0000 Z
  Strength   :  0.000497
  Natural transition orbitals ( 1 -> 8 ):
   e-/hole pair  1 alpha:  ampl =  0.406426 ( 16.5%)   [7 : 8]
   e-/hole pair  2 alpha:  ampl =  0.217784 (  4.7%)   [6 : 9]
   e-/hole pair  1 beta :  ampl =  0.492737 ( 24.3%)   [7 : 8]
   e-/hole pair  2 beta :  ampl =  0.256514 (  6.6%)   [6 : 9]
   Sum of square amplitudes: 0.58

 NATURAL OCCUPATION NUMBERS (higher than 1.0E-05)
            1           2           3           4           5           6
    1   2.0000000   2.0000000   2.0000000   2.0000000   2.0000000   2.0000000
            7           8           9          10          11          12
    1   2.0000000   2.0000000   2.0000000   2.0000000   2.0000000   2.0000000
           13          14          15          16          17          18
    1   2.0000000   2.0000000   2.0000000   2.0000000   2.0000000   2.0000000
           19          20          21          22          23          24
    1   2.0000000   2.0000000   2.0000000   2.0000000   2.0000000   2.0000000
           25          26          27          28          29          30
    1   2.0000000   2.0000000   2.0000000   2.0000000   2.0000000   2.0000000
           31          32          33          34          35          36
    1   2.0000000   2.0000000   2.0000000   2.0000000   2.0000000   2.0000000
           37          38          39          40          41          42
    1   2.0000000   1.9924226   1.9904001   1.9357936   1.7284578   1.7090127
           43          44          45          46          47          48
    1   1.6867325   1.0912902   0.3201791   0.2681657   0.1900863   0.0658151
           49          50          51          52          53          54
    1   0.0078781   0.0061030   0.0011496   0.0011082   0.0009618   0.0006618
           55          56          57          58          59          60
    1   0.0005863   0.0004900   0.0004419   0.0003832   0.0002712   0.0002253
           61          62          63          64          65          66
    1   0.0002219   0.0001755   0.0001651   0.0001488   0.0001372   0.0000903
           67          68          69          70          71          72
    1   0.0000840   0.0000730   0.0000654   0.0000526   0.0000308   0.0000231
           73          74          75
    1   0.0000148   0.0000144   0.0000133

 Head-Gordon Nu:    2.73
 Head-Gordon Nu_nl: 2.39

  Amplitudes : 
  
 | HOLE  | ALPHA   | BETA    | PART  |    AMPLITUDE 
--------------------------------------------------
 |       | 1111000 | 1100100 |       |     1.9179435236086E-01
 |       | 1111000 | 1100001 |       |     1.1724235825514E-01
 |       | 1111000 | 1010100 |       |     1.0249031293550E-01
 |       | 1111000 | 1010010 |       |     1.1436816728067E-01
 |       | 1110100 | 1101000 |       |     2.5304797327257E-01
 |       | 1110100 | 1011000 |       |     1.3499630140444E-01
 |       | 1110010 | 1011000 |       |     2.3220998492413E-01
 |       | 1110010 | 0111000 |       |     2.6153141063378E-01
 |       | 1110001 | 1101000 |       |     2.3762209915967E-01
 |       | 1101001 | 1110000 |       |     1.2037974090448E-01
 |       | 1011010 | 1110000 |       |     1.1784181764333E-01
 |       | 0111010 | 1110000 |       |     1.6623265698138E-01
 |  39   | 1111000 | 1111000 |       |     4.9739168453181E-01
 |  40   | 1111000 | 1111000 |       |     1.1630209725008E-01
 |       | 1110000 | 1110000 |  57   |    -3.7366768164512E-01
 |       | 1110000 | 1110000 |  74   |    -1.1539653624973E-01
--------------------------------------------------
*** Contributions RASCI wfn    Active:  46.25
                                 Hole:  30.79
                                 Part:  22.96

      Mulliken population analysis 
 ---------------------------------------------------
   Atom    Charge (a.u.)   Spin (a.u.)  
 ---------------------------------------------------
   1  C   -0.140268        0.079697 
   2  C   -0.187689       -0.034416 
   3  C    0.088309        0.109454 
   4  C   -0.007577       -0.001027 
   5  C    0.099729        0.100076 
   6  C   -0.174908        0.069886 
   7  H    0.127466        0.001814 
   8  C   -0.162695        0.101490 
   9  C   -0.149138        0.207906 
  10  C   -0.165447        0.083220 
  11  C    0.086192        0.110511 
  12  C   -0.186170       -0.032347 
  13  C   -0.141709        0.098315 
  14  C   -0.170942        0.089786 
  15  H    0.149048        0.002169 
  16  H    0.129087       -0.000848 
  17  H    0.127460        0.002550 
  18  H    0.146355        0.005516 
  19  H    0.127861        0.002087 
  20  H    0.127612        0.002316 
  21  H    0.129332       -0.000807 
  22  H    0.148093        0.002654 
 ---------------------------------------------------
   Sum:   -0.000000        1.000000 
 ---------------------------------------------------
 
*** Unpaired Electrons
 Yamaguchi Nd:         4.16
  
**************************************************
 RAS-CI total energy for state   9:   -497.597419449527
  Excitation energy (eV) =  5.287460690239
  State symmetry: A1  (C1       )
  <S^2>      :  0.7500
  Dipole Moment:    0.0158 X    -0.0073 Y    -0.0006 Z
  Trans. Moment:    0.0595 X    -0.0140 Y    -0.0000 Z
  Strength   :  0.000485
  Natural transition orbitals ( 1 -> 9 ):
   e-/hole pair  1 alpha:  ampl =  0.406034 ( 16.5%)   [7 : 8]
   e-/hole pair  2 alpha:  ampl =  0.227365 (  5.2%)   [6 : 9]
   e-/hole pair  1 beta :  ampl =  0.492488 ( 24.3%)   [7 : 8]
   e-/hole pair  2 beta :  ampl =  0.264768 (  7.0%)   [6 : 9]
   Sum of square amplitudes: 0.58

 NATURAL OCCUPATION NUMBERS (higher than 1.0E-05)
            1           2           3           4           5           6
    1   2.0000000   2.0000000   2.0000000   2.0000000   2.0000000   2.0000000
            7           8           9          10          11          12
    1   2.0000000   2.0000000   2.0000000   2.0000000   2.0000000   2.0000000
           13          14          15          16          17          18
    1   2.0000000   2.0000000   2.0000000   2.0000000   2.0000000   2.0000000
           19          20          21          22          23          24
    1   2.0000000   2.0000000   2.0000000   2.0000000   2.0000000   2.0000000
           25          26          27          28          29          30
    1   2.0000000   2.0000000   2.0000000   2.0000000   2.0000000   2.0000000
           31          32          33          34          35          36
    1   2.0000000   2.0000000   2.0000000   2.0000000   2.0000000   2.0000000
           37          38          39          40          41          42
    1   2.0000000   1.9953894   1.9873735   1.8916934   1.8284652   1.7109970
           43          44          45          46          47          48
    1   1.6275238   1.0922652   0.3662852   0.2146780   0.1538764   0.1101189
           49          50          51          52          53          54
    1   0.0094400   0.0042905   0.0011459   0.0011326   0.0008498   0.0006551
           55          56          57          58          59          60
    1   0.0006006   0.0004604   0.0004396   0.0003994   0.0003119   0.0002499
           61          62          63          64          65          66
    1   0.0002331   0.0001846   0.0001417   0.0001368   0.0001061   0.0001003
           67          68          69          70          71          72
    1   0.0000876   0.0000804   0.0000651   0.0000502   0.0000321   0.0000210
           73          74          75          76
    1   0.0000152   0.0000149   0.0000120   0.0000115

 Head-Gordon Nu:    2.73
 Head-Gordon Nu_nl: 2.37

  Amplitudes : 
  
 | HOLE  | ALPHA   | BETA    | PART  |    AMPLITUDE 
--------------------------------------------------
 |       | 1111000 | 1100100 |       |     1.0409391189937E-01
 |       | 1111000 | 1100010 |       |    -1.1421335283891E-01
 |       | 1111000 | 1010100 |       |    -1.9404246333753E-01
 |       | 1111000 | 1010001 |       |     1.1417310282447E-01
 |       | 1110100 | 1101000 |       |     1.3841699709950E-01
 |       | 1110100 | 1011000 |       |    -2.5792616629843E-01
 |       | 1110010 | 1101000 |       |    -2.3358789230312E-01
 |       | 1110001 | 1011000 |       |     2.3523172957367E-01
 |       | 1110001 | 0111000 |       |    -2.5618584194312E-01
 |       | 1101010 | 1110000 |       |    -1.1937453946393E-01
 |       | 1011001 | 1110000 |       |     1.2105862674931E-01
 |       | 0111001 | 1110000 |       |    -1.6356070185338E-01
 |  39   | 1111000 | 1111000 |       |    -1.1630403629022E-01
 |  40   | 1111000 | 1111000 |       |     4.9709898456498E-01
 |       | 1110000 | 1110000 |  58   |    -3.7332190089339E-01
 |       | 1110000 | 1110000 |  73   |    -1.1539806296957E-01
--------------------------------------------------
*** Contributions RASCI wfn    Active:  46.28
                                 Hole:  30.77
                                 Part:  22.95

      Mulliken population analysis 
 ---------------------------------------------------
   Atom    Charge (a.u.)   Spin (a.u.)  
 ---------------------------------------------------
   1  C   -0.147562        0.178273 
   2  C   -0.161353        0.127385 
   3  C    0.094178        0.103790 
   4  C   -0.007540       -0.000989 
   5  C    0.083849        0.113992 
   6  C   -0.174102        0.022897 
   7  H    0.128073        0.000556 
   8  C   -0.186734       -0.009396 
   9  C   -0.137331        0.048701 
  10  C   -0.184994        0.008792 
  11  C    0.095991        0.102324 
  12  C   -0.162956        0.125069 
  13  C   -0.146083        0.159220 
  14  C   -0.177686        0.002499 
  15  H    0.147455        0.004745 
  16  H    0.127206        0.003225 
  17  H    0.128710       -0.000190 
  18  H    0.148926        0.001358 
  19  H    0.128676        0.000276 
  20  H    0.128681        0.000047 
  21  H    0.127479        0.003182 
  22  H    0.147118        0.004243 
 ---------------------------------------------------
   Sum:   -0.000000        1.000000 
 ---------------------------------------------------
 
*** Unpaired Electrons
 Yamaguchi Nd:         4.16
  
**************************************************
 RAS-CI total energy for state  10:   -497.590512630169
  Excitation energy (eV) =  5.475404807258
  State symmetry: A1  (C1       )
  <S^2>      :  0.7500
  Dipole Moment:    0.0002 X    -0.0002 Y    -0.0010 Z
  Trans. Moment:    0.0002 X    -0.0001 Y     0.0000 Z
  Strength   :  0.000000
  Natural transition orbitals ( 1 -> 10 ):
   e-/hole pair  1 alpha:  ampl =  0.383657 ( 14.7%)   [7 : 8]
   e-/hole pair  2 alpha:  ampl =  0.043276 (  0.2%)   [6 : 9]
   e-/hole pair  1 beta :  ampl =  0.378702 ( 14.3%)   [7 : 8]
   e-/hole pair  2 beta :  ampl =  0.045192 (  0.2%)   [6 : 9]
   Sum of square amplitudes: 0.30

 NATURAL OCCUPATION NUMBERS (higher than 1.0E-05)
            1           2           3           4           5           6
    1   2.0000000   2.0000000   2.0000000   2.0000000   2.0000000   2.0000000
            7           8           9          10          11          12
    1   2.0000000   2.0000000   2.0000000   2.0000000   2.0000000   2.0000000
           13          14          15          16          17          18
    1   2.0000000   2.0000000   2.0000000   2.0000000   2.0000000   2.0000000
           19          20          21          22          23          24
    1   2.0000000   2.0000000   2.0000000   2.0000000   2.0000000   2.0000000
           25          26          27          28          29          30
    1   2.0000000   2.0000000   2.0000000   2.0000000   2.0000000   2.0000000
           31          32          33          34          35          36
    1   2.0000000   2.0000000   2.0000000   2.0000000   2.0000000   2.0000000
           37          38          39          40          41          42
    1   2.0000000   1.9940918   1.9877347   1.9876758   1.9061028   1.9055298
           43          44          45          46          47          48
    1   1.0487409   1.0026589   0.9556326   0.0873859   0.0867789   0.0110894
           49          50          51          52          53          54
    1   0.0110596   0.0057380   0.0013995   0.0013956   0.0010242   0.0009118
           55          56          57          58          59          60
    1   0.0009098   0.0006775   0.0005042   0.0005042   0.0004692   0.0003520
           61          62          63          64          65          66
    1   0.0002548   0.0002051   0.0002047   0.0001388   0.0001387   0.0001257
           67          68          69          70          71          72
    1   0.0001231   0.0001003   0.0001002   0.0000326   0.0000325   0.0000243
           73          74          75          76          77
    1   0.0000242   0.0000203   0.0000161   0.0000160   0.0000101

 Head-Gordon Nu:    3.33
 Head-Gordon Nu_nl: 3.11

  Amplitudes : 
  
 | HOLE  | ALPHA   | BETA    | PART  |    AMPLITUDE 
--------------------------------------------------
 |       | 1111000 | 0110100 |       |    -3.5799438592950E-01
 |       | 1110100 | 0111000 |       |    -7.1767933229844E-01
 |       | 0111100 | 1110000 |       |    -3.5968494636923E-01
--------------------------------------------------
*** Contributions RASCI wfn    Active:  86.71
                                 Hole:   5.11
                                 Part:   8.18

      Mulliken population analysis 
 ---------------------------------------------------
   Atom    Charge (a.u.)   Spin (a.u.)  
 ---------------------------------------------------
   1  C   -0.142982        0.196462 
   2  C   -0.183345       -0.042113 
   3  C    0.091563        0.077684 
   4  C    0.036730        0.421858 
   5  C    0.092060        0.077687 
   6  C   -0.183487       -0.041983 
   7  H    0.128457       -0.000491 
   8  C   -0.183671       -0.042562 
   9  C   -0.142256        0.195735 
  10  C   -0.184038       -0.042623 
  11  C    0.091442        0.077439 
  12  C   -0.183477       -0.042242 
  13  C   -0.142962        0.196009 
  14  C   -0.183166       -0.042333 
  15  H    0.148624        0.004672 
  16  H    0.128844       -0.000494 
  17  H    0.128768       -0.000504 
  18  H    0.148023        0.004645 
  19  H    0.128958       -0.000505 
  20  H    0.128834       -0.000500 
  21  H    0.129097       -0.000496 
  22  H    0.147983        0.004654 
 ---------------------------------------------------
   Sum:   -0.000000        1.000000 
 ---------------------------------------------------
 
*** Unpaired Electrons
 Yamaguchi Nd:         3.82
  
**************************************************
 RAS-CI total energy for state  11:   -497.572055359965
  Excitation energy (eV) =  5.977652683094
  State symmetry: A1  (C1       )
  <S^2>      :  0.7500
  Dipole Moment:   -0.0528 X    -0.0056 Y    -0.0010 Z
  Trans. Moment:    0.0636 X     0.1150 Y     0.0002 Z
  Strength   :  0.002528
  Natural transition orbitals ( 1 -> 11 ):
   e-/hole pair  1 alpha:  ampl =  0.461099 ( 21.3%)   [7 : 8]
   e-/hole pair  2 alpha:  ampl =  0.299984 (  9.0%)   [6 : 9]
   e-/hole pair  1 beta :  ampl =  0.503920 ( 25.4%)   [7 : 8]
   e-/hole pair  2 beta :  ampl =  0.284801 (  8.1%)   [6 : 9]
   Sum of square amplitudes: 0.70

 NATURAL OCCUPATION NUMBERS (higher than 1.0E-05)
            1           2           3           4           5           6
    1   2.0000000   2.0000000   2.0000000   2.0000000   2.0000000   2.0000000
            7           8           9          10          11          12
    1   2.0000000   2.0000000   2.0000000   2.0000000   2.0000000   2.0000000
           13          14          15          16          17          18
    1   2.0000000   2.0000000   2.0000000   2.0000000   2.0000000   2.0000000
           19          20          21          22          23          24
    1   2.0000000   2.0000000   2.0000000   2.0000000   2.0000000   2.0000000
           25          26          27          28          29          30
    1   2.0000000   2.0000000   2.0000000   2.0000000   2.0000000   2.0000000
           31          32          33          34          35          36
    1   2.0000000   2.0000000   2.0000000   2.0000000   2.0000000   2.0000000
           37          38          39          40          41          42
    1   2.0000000   1.9889948   1.9759223   1.9385018   1.8958674   1.5731367
           43          44          45          46          47          48
    1   1.4599525   1.0271744   0.5125683   0.4569320   0.0942520   0.0354394
           49          50          51          52          53          54
    1   0.0219289   0.0089279   0.0017176   0.0014172   0.0010559   0.0009626
           55          56          57          58          59          60
    1   0.0008432   0.0006272   0.0005058   0.0003969   0.0003878   0.0003849
           61          62          63          64          65          66
    1   0.0003505   0.0002733   0.0002410   0.0001869   0.0001739   0.0001311
           67          68          69          70          71          72
    1   0.0001193   0.0001110   0.0000966   0.0000861   0.0000539   0.0000463
           73          74          75          76          77          78
    1   0.0000380   0.0000356   0.0000262   0.0000205   0.0000177   0.0000133
           79
    1   0.0000102

 Head-Gordon Nu:    3.28
 Head-Gordon Nu_nl: 3.24

  Amplitudes : 
  
 | HOLE  | ALPHA   | BETA    | PART  |    AMPLITUDE 
--------------------------------------------------
 |       | 1111000 | 1100100 |       |    -4.8541107979609E-01
 |       | 1111000 | 1010100 |       |    -1.0935203934260E-01
 |       | 1111000 | 0110010 |       |     2.5735670174103E-01
 |       | 1111000 | 0110001 |       |    -1.0696566370683E-01
 |       | 1110100 | 1101000 |       |    -1.9842868225454E-01
 |       | 1110010 | 1011000 |       |     1.0966155351315E-01
 |       | 1110010 | 0111000 |       |    -1.6209725204515E-01
 |       | 1110001 | 1101000 |       |     1.0582993243729E-01
 |       | 1101100 | 1110000 |       |     2.8698239754118E-01
 |       | 0111010 | 1110000 |       |    -4.1945395378667E-01
 |       | 0111001 | 1110000 |       |     1.7577461020640E-01
 |  39   | 1111000 | 1111000 |       |     1.7477798173617E-01
 |       | 1110000 | 1110000 |  57   |    -1.0623651493826E-01
--------------------------------------------------
*** Contributions RASCI wfn    Active:  80.43
                                 Hole:  10.41
                                 Part:   9.16

      Mulliken population analysis 
 ---------------------------------------------------
   Atom    Charge (a.u.)   Spin (a.u.)  
 ---------------------------------------------------
   1  C   -0.139181       -0.004406 
   2  C   -0.185072        0.107590 
   3  C    0.085073        0.071148 
   4  C    0.006593       -0.116282 
   5  C    0.088976       -0.013461 
   6  C   -0.169507        0.219675 
   7  H    0.127885        0.004538 
   8  C   -0.178664        0.189278 
   9  C   -0.138258       -0.018782 
  10  C   -0.172990        0.233403 
  11  C    0.086266        0.038540 
  12  C   -0.183347        0.099601 
  13  C   -0.139171        0.005224 
  14  C   -0.173585        0.167792 
  15  H    0.148076        0.000030 
  16  H    0.128460        0.002046 
  17  H    0.127669        0.004049 
  18  H    0.148193       -0.000263 
  19  H    0.127769        0.005035 
  20  H    0.128732        0.003265 
  21  H    0.129108        0.001750 
  22  H    0.146975        0.000229 
 ---------------------------------------------------
   Sum:   -0.000000        1.000000 
 ---------------------------------------------------
 
*** Unpaired Electrons
 Yamaguchi Nd:         4.64
  
**************************************************
 RAS-CI total energy for state  12:   -497.572028989723
  Excitation energy (eV) =  5.978370253888
  State symmetry: A1  (C1       )
  <S^2>      :  0.7500
  Dipole Moment:    0.0531 X     0.0054 Y    -0.0010 Z
  Trans. Moment:    0.1157 X    -0.0633 Y     0.0001 Z
  Strength   :  0.002549
  Natural transition orbitals ( 1 -> 12 ):
   e-/hole pair  1 alpha:  ampl =  0.461736 ( 21.3%)   [7 : 8]
   e-/hole pair  2 alpha:  ampl =  0.296943 (  8.8%)   [6 : 9]
   e-/hole pair  1 beta :  ampl =  0.504503 ( 25.5%)   [7 : 8]
   e-/hole pair  2 beta :  ampl =  0.281332 (  7.9%)   [6 : 9]
   Sum of square amplitudes: 0.70

 NATURAL OCCUPATION NUMBERS (higher than 1.0E-05)
            1           2           3           4           5           6
    1   2.0000000   2.0000000   2.0000000   2.0000000   2.0000000   2.0000000
            7           8           9          10          11          12
    1   2.0000000   2.0000000   2.0000000   2.0000000   2.0000000   2.0000000
           13          14          15          16          17          18
    1   2.0000000   2.0000000   2.0000000   2.0000000   2.0000000   2.0000000
           19          20          21          22          23          24
    1   2.0000000   2.0000000   2.0000000   2.0000000   2.0000000   2.0000000
           25          26          27          28          29          30
    1   2.0000000   2.0000000   2.0000000   2.0000000   2.0000000   2.0000000
           31          32          33          34          35          36
    1   2.0000000   2.0000000   2.0000000   2.0000000   2.0000000   2.0000000
           37          38          39          40          41          42
    1   2.0000000   1.9892470   1.9744171   1.9393773   1.8943586   1.5787450
           43          44          45          46          47          48
    1   1.4564367   1.0271305   0.5227341   0.4443601   0.0962204   0.0347965
           49          50          51          52          53          54
    1   0.0231496   0.0086069   0.0017022   0.0014266   0.0010501   0.0009847
           55          56          57          58          59          60
    1   0.0008364   0.0006103   0.0005273   0.0004030   0.0003925   0.0003838
           61          62          63          64          65          66
    1   0.0003581   0.0002665   0.0002443   0.0001833   0.0001749   0.0001282
           67          68          69          70          71          72
    1   0.0001163   0.0001090   0.0001001   0.0000897   0.0000551   0.0000468
           73          74          75          76          77          78
    1   0.0000384   0.0000355   0.0000271   0.0000190   0.0000174   0.0000135
           79
    1   0.0000105

 Head-Gordon Nu:    3.28
 Head-Gordon Nu_nl: 3.24

  Amplitudes : 
  
 | HOLE  | ALPHA   | BETA    | PART  |    AMPLITUDE 
--------------------------------------------------
 |       | 1111000 | 1100100 |       |    -1.0834717547079E-01
 |       | 1111000 | 1010100 |       |     4.8440527344459E-01
 |       | 1111000 | 0110010 |       |    -1.0764866893117E-01
 |       | 1111000 | 0110001 |       |    -2.5628466696649E-01
 |       | 1110100 | 1011000 |       |     1.9647873269505E-01
 |       | 1110010 | 1101000 |       |    -1.0794808408580E-01
 |       | 1110001 | 1011000 |       |     1.0838770513979E-01
 |       | 1110001 | 0111000 |       |     1.6410539019678E-01
 |       | 1011100 | 1110000 |       |    -2.8792654074972E-01
 |       | 0111010 | 1110000 |       |     1.7508386575203E-01
 |       | 0111001 | 1110000 |       |     4.2039005716303E-01
 |  40   | 1111000 | 1111000 |       |     1.7465011906857E-01
 |       | 1110000 | 1110000 |  58   |    -1.0608253299159E-01
--------------------------------------------------
*** Contributions RASCI wfn    Active:  80.43
                                 Hole:  10.41
                                 Part:   9.16

      Mulliken population analysis 
 ---------------------------------------------------
   Atom    Charge (a.u.)   Spin (a.u.)  
 ---------------------------------------------------
   1  C   -0.139222       -0.008263 
   2  C   -0.168929        0.230503 
   3  C    0.088223       -0.006946 
   4  C    0.006517       -0.116301 
   5  C    0.085425        0.076404 
   6  C   -0.184636        0.118831 
   7  H    0.127933        0.002333 
   8  C   -0.176002        0.150859 
   9  C   -0.138404        0.007564 
  10  C   -0.182521        0.106673 
  11  C    0.086681        0.026588 
  12  C   -0.170854        0.239048 
  13  C   -0.139062       -0.017289 
  14  C   -0.180125        0.171693 
  15  H    0.148255       -0.000054 
  16  H    0.128115        0.004815 
  17  H    0.128764        0.002860 
  18  H    0.146929        0.000278 
  19  H    0.129033        0.001879 
  20  H    0.127838        0.003628 
  21  H    0.127974        0.005131 
  22  H    0.148068       -0.000235 
 ---------------------------------------------------
   Sum:   -0.000000        1.000000 
 ---------------------------------------------------
 
*** Unpaired Electrons
 Yamaguchi Nd:         4.64
  
**************************************************
 RAS-CI total energy for state  13:   -497.569579339711
  Excitation energy (eV) =  6.045028622178
  State symmetry: A1  (C1       )
  <S^2>      :  0.7500
  Dipole Moment:   -0.0122 X     0.0090 Y     0.0000 Z
  Trans. Moment:   -0.0003 X     0.0023 Y     0.0000 Z
  Strength   :  0.000001
  Natural transition orbitals ( 1 -> 13 ):
   e-/hole pair  1 alpha:  ampl =  0.916567 ( 84.0%)   [7 : 8]
   e-/hole pair  2 alpha:  ampl =  0.090804 (  0.8%)   [6 : 9]
   e-/hole pair  1 beta :  ampl =  0.006923 (  0.0%)   [7 : 8]
   e-/hole pair  2 beta :  ampl =  0.004700 (  0.0%)   [6 : 9]
   Sum of square amplitudes: 0.86

 NATURAL OCCUPATION NUMBERS (higher than 1.0E-05)
            1           2           3           4           5           6
    1   2.0000000   2.0000000   2.0000000   2.0000000   2.0000000   2.0000000
            7           8           9          10          11          12
    1   2.0000000   2.0000000   2.0000000   2.0000000   2.0000000   2.0000000
           13          14          15          16          17          18
    1   2.0000000   2.0000000   2.0000000   2.0000000   2.0000000   2.0000000
           19          20          21          22          23          24
    1   1.9999999   1.9999999   1.9999999   1.9999999   1.9999999   1.9999999
           25          26          27          28          29          30
    1   1.9999997   1.9999997   1.9999997   1.9999996   1.9999991   1.9999990
           31          32          33          34          35          36
    1   1.9999985   1.9999980   1.9999979   1.9999971   1.9999971   1.9999951
           37          38          39          40          41          42
    1   1.9999913   1.9999826   1.9999823   1.9999477   1.9636704   1.9318100
           43          44          45          46          47          48
    1   1.9318061   0.9501592   0.0899574   0.0344627   0.0242965   0.0242809
           49          50          51          52          53          54
    1   0.0217914   0.0217527   0.0016069   0.0016045   0.0013860   0.0005888
           55          56          57          58          59          60
    1   0.0003129   0.0002024   0.0002013   0.0000825   0.0000239   0.0000239
           61
    1   0.0000116

 Head-Gordon Nu:    1.35
 Head-Gordon Nu_nl: 1.08

  Amplitudes : 
  
 | HOLE  | ALPHA   | BETA    | PART  |    AMPLITUDE 
--------------------------------------------------
 |       | 1110000 | 1110000 |  48   |     9.2810899761866E-01
 |       | 1110000 | 1110000 |  78   |     1.0847464971406E-01
--------------------------------------------------
*** Contributions RASCI wfn    Active:   0.01
                                 Hole:   0.01
                                 Part:  99.98

      Mulliken population analysis 
 ---------------------------------------------------
   Atom    Charge (a.u.)   Spin (a.u.)  
 ---------------------------------------------------
   1  C    0.212278       -0.342758 
   2  C    0.137645       -0.153739 
   3  C    0.296590       -0.214150 
   4  C   -0.890187        0.884402 
   5  C    0.296687       -0.213797 
   6  C    0.135543       -0.151931 
   7  H   -0.278814        0.411302 
   8  C    0.136822       -0.152803 
   9  C    0.215431       -0.345072 
  10  C    0.137998       -0.154232 
  11  C    0.296931       -0.214656 
  12  C    0.138546       -0.154431 
  13  C    0.213482       -0.343887 
  14  C    0.135371       -0.151387 
  15  H    0.075439        0.074357 
  16  H   -0.281138        0.414010 
  17  H   -0.282011        0.414821 
  18  H    0.074391        0.074791 
  19  H   -0.283555        0.416559 
  20  H   -0.279641        0.412507 
  21  H   -0.282561        0.415698 
  22  H    0.074753        0.074395 
 ---------------------------------------------------
   Sum:    0.000000        1.000000 
 ---------------------------------------------------
 
*** Unpaired Electrons
 Yamaguchi Nd:         1.77
  
**************************************************
 RAS-CI total energy for state  14:   -497.556264379694
  Excitation energy (eV) =  6.407347118428
  State symmetry: A1  (C1       )
  <S^2>      :  0.7500
  Dipole Moment:    0.0004 X    -0.0003 Y    -0.0007 Z
  Trans. Moment:    0.0007 X     0.0009 Y    -0.0000 Z
  Strength   :  0.000000
[...]
  1.7730   1.7789   1.7791   1.7887   1.7932   1.8117   1.8119   1.8358
  1.8358   1.8393   1.8527   1.8598   1.8599   1.8807   1.8840   1.8841
  1.8945   1.8946   1.9076   1.9565   1.9566   1.9668   1.9971   1.9972
  2.0071   2.0072   2.0112   2.0148   2.0202   2.0202   2.0224   2.0225
  2.0433   2.0723   2.0724   2.0748   2.0748   2.0862   2.0949   2.0980
  2.0982   2.1111   2.1129   2.1277   2.1278   2.1382   2.1406   2.1407
  2.1698   2.1699   2.1729   2.1778   2.2134   2.2134   2.2156   2.2208
  2.2328   2.2329   2.2501   2.2509   2.2629   2.2636   2.2638   2.2741
  2.2741   2.2786   2.2787   2.3053   2.3054   2.3136   2.3137   2.3160
  2.3300   2.3337   2.3662   2.3664   2.3744   2.3745   2.3891   2.3966
  2.3966   2.3988   2.4005   2.4171   2.4173   2.4269   2.4270   2.4366
  2.4521   2.4612   2.4612   2.4629   2.4763   2.4782   2.4782   2.5067
  2.5070   2.5150   2.5151   2.5213   2.5214   2.5624   2.5644   2.5756
  2.5757   2.5853   2.5926   2.6097   2.6097   2.6154   2.6254   2.6254
  2.6459   2.6461   2.6472   2.6854   2.6857   2.7149   2.7365   2.7367
  2.7523   2.7524   2.7599   2.7634   2.7639   2.7731   2.7731   2.8011
  2.8125   2.8126   2.8182   2.8184   2.8227   2.8343   2.8345   2.8489
  2.8533   2.8767   2.8768   2.8861   2.8863   2.8949   2.9203   2.9238
  2.9239   2.9731   2.9757   2.9759   2.9927   2.9930   3.0015   3.0240
  3.0240   3.0585   3.0606   3.0716   3.0716   3.0753   3.0754   3.0978
  3.0978   3.1010   3.1254   3.1251   3.1529   3.1530   3.1542   3.1803
  3.1804   3.1918   3.1920   3.2206   3.2208   3.2243   3.2413   3.2419
  3.2422   3.2488   3.3002   3.3169   3.3487   3.3488   3.3527   3.3530
  3.3577   3.3685   3.3686   3.4031   3.4339   3.4339   3.4441   3.4493
  3.4708   3.4711   3.4859   3.5068   3.5068   3.5075   3.5076   3.5526
  3.5528   3.5827   3.5828   3.6707   3.6934   3.6935   3.7031   3.7065
  3.7075   3.7076   3.7465   3.7467   3.7659   3.8445   3.8646   3.8651
  3.8721   3.8798   3.8798   3.9341   3.9346   3.9565   3.9568   3.9576
  3.9583   3.9585   3.9692   3.9847   3.9858   3.9871   3.9907   3.9911
  4.0481   4.0484   4.0487   4.0592   4.0897   4.0897   4.0938   4.1173
  4.1176   4.1289   4.1290   4.1986   4.1990   4.2568   4.2713   4.3143
  4.3146   4.3762   4.4432   4.4441   4.4829   4.4830   4.4918   4.4922
  4.5061   4.5639   4.5643   4.5730   4.5731   4.5736   4.5738   4.6099
  4.6564   4.7311   4.7316   4.8210   4.8213   4.8797   4.9063   4.9065
  4.9707   5.0050   5.0351   5.0352   5.0406   5.0507   5.1233   5.1266
  5.1267   5.1320   5.1322   5.1799   5.1800   5.2033   5.2034   5.2416
  5.2737   5.2809   5.2812   5.2920   5.3227   5.3228   5.3368   5.3521
  5.3522   5.4006   5.4038   5.4193   5.4345   5.4348   5.4424   5.4593
  5.4593   5.4844   5.4845   5.4888   5.5260   5.5261   5.5771   5.5777
  5.5779   5.6071   5.6076   5.6093   5.6095   5.6235   5.6367   5.6369
  5.6402   5.6525   5.6527   5.6901   5.6902   5.7164   5.7165   5.7413
  5.7507   5.7511   5.7514   5.7805   5.7808   5.7972   5.8333   5.8474
  5.8475   5.8614   5.8616   5.9079   5.9139   5.9140   5.9168   5.9169
  5.9204   5.9467   6.0072   6.0072   6.0123   6.0131   6.0148   6.0153
  6.0154   6.0320   6.0322   6.0621   6.0628   6.0630   6.0652   6.0778
  6.0779   6.0913   6.0931   6.1149   6.1152   6.1460   6.1462   6.1675
  6.1678   6.1708   6.1777   6.1892   6.2047   6.2047   6.2048   6.2204
  6.2252   6.2254   6.2345   6.2386   6.2510   6.2513   6.2604   6.2605
  6.2879   6.2880   6.3035   6.3036   6.3037   6.3218   6.3219   6.3339
  6.3342   6.3602   6.3683   6.3715   6.3795   6.3797   6.3885   6.3885
  6.3964   6.3965   6.4122   6.4211   6.4212   6.4290   6.4522   6.4602
  6.4605   6.4622   6.4778   6.4779   6.5302   6.5304   6.5381   6.5511
  6.5513   6.5553   6.5566   6.5577   6.5642   6.5643   6.5888   6.5893
  6.6007   6.6119   6.6379   6.6427   6.6429   6.6523   6.6524   6.6554
  6.6787   6.6787   6.6887   6.6902   6.6905   6.6963   6.6965   6.7071
  6.7162   6.7165   6.7317   6.7430   6.7628   6.7714   6.7729   6.7730
  6.7898   6.7900   6.8010   6.8011   6.8299   6.8450   6.8452   6.8500
  6.8779   6.8979   6.8983   6.9075   6.9148   6.9149   6.9319   6.9321
  6.9626   6.9673   6.9800   6.9801   7.0017   7.0018   7.0186   7.0188
  7.0260   7.0263   7.0537   7.0557   7.0776   7.0779   7.1073   7.1077
  7.1129   7.1130   7.1351   7.1567   7.1666   7.1793   7.1795   7.1859
  7.1861   7.2005   7.2144   7.2146   7.2305   7.2404   7.2405   7.2557
  7.2687   7.2798   7.2885   7.2887   7.2992   7.2995   7.3338   7.3338
  7.3494   7.3495   7.3521   7.3588   7.4026   7.4030   7.4542   7.4543
  7.4762   7.4921   7.4921   7.5324   7.5574   7.5575   7.5723   7.5751
  7.5783   7.5784   7.6336   7.6479   7.6728   7.6732   7.6766   7.6768
  7.7160   7.7164   7.7164   7.7462   7.7462   7.7762   7.8177   7.8179
  7.8236   7.8313   7.8669   7.8670   7.8704   7.8798   7.8839   7.8839
  7.8872   7.8974   7.9063   7.9066   7.9236   7.9239   7.9687   7.9833
  8.0123   8.0125   8.0301   8.0306   8.0579   8.0581   8.0651   8.0739
  8.0741   8.0839   8.1392   8.1394   8.1415   8.1562   8.1781   8.1917
  8.1920   8.2069   8.2070   8.2090   8.2092   8.2189   8.2308   8.2311
  8.2558   8.2559   8.2772   8.3221   8.3236   8.3566   8.3566   8.3892
  8.4327   8.4330   8.4610   8.4619   8.4723   8.5008   8.5009   8.5181
  8.5182   8.5516   8.5558   8.5597   8.5841   8.5842   8.5913   8.6014
  8.6019   8.6021   8.6277   8.6284   8.6724   8.6815   8.6816   8.7031
  8.7129   8.7479   8.7482   8.7512   8.7602   8.7603   8.7645   8.7647
  8.7745   8.8045   8.8047   8.8124   8.8126   8.8289   8.8293   8.8312
  8.8314   8.8366   8.8495   8.8531   8.8555   8.8558   8.8559   8.9075
  8.9173   8.9180   9.0302   9.0438   9.0439   9.0444   9.0556   9.0559
  9.0585   9.0586   9.0590   9.0977   9.1082   9.1086   9.1428   9.1801
  9.1804   9.2343   9.2347   9.2907   9.2908   9.3102   9.3103   9.3375
  9.3448   9.3483   9.3936   9.4197   9.4199   9.4606   9.5198   9.5198
  9.5582   9.5871   9.5872   9.6975   9.7024   9.7030   9.7521   9.8761
  9.8766   9.9155   9.9157   9.9505   9.9536   9.9539  10.0319  10.0808
 10.1019  10.1020  10.1301  10.1416  10.1631  10.1644  10.1768  10.1773
 10.1832  10.2233  10.2237  10.2369  10.2553  10.2827  10.2830  10.2914
 10.2923  10.3153  10.3512  10.3821  10.3826  10.4472  10.4474  10.4780
 10.4785  10.5065  10.5069  10.5128  10.5837  10.5840  10.5942  10.6143
 10.6531  10.7313  10.7318  10.7494  10.7497  10.7794  10.9737  11.1300
 11.1306  11.2243  11.2249  11.2904  11.7270  12.0179  12.0184  12.6510
 12.6851  12.6873  12.7659  12.7697  12.7701  12.8300  12.8304  12.8308
 24.0847  24.3251  24.3263  24.6713  24.9204  24.9210  25.1632  25.4873
 25.6594  25.6613  25.8437  25.9759  25.9763
 
 Beta MOs
 -- Occupied --
-11.2437 -11.2435 -11.2434 -11.2398 -11.2359 -11.2358 -11.2358 -11.2345
-11.2344 -11.2343 -11.2341 -11.2340 -11.2339  -1.1911  -1.1141  -1.1141
 -1.0160  -1.0160  -1.0091  -0.9041  -0.8478  -0.8319  -0.8319  -0.7100
 -0.7099  -0.6926  -0.6925  -0.6503  -0.5981  -0.5980  -0.5892  -0.5724
 -0.5438  -0.5446  -0.5445  -0.5319  -0.4742  -0.4740  -0.4436  -0.4435
 -0.3256  -0.3093  -0.3092
 -- Virtual --
  0.0054   0.1154   0.1394   0.1393   0.1131   0.1260   0.1260   0.1436
  0.1437   0.1585   0.1811   0.2073   0.2073   0.2527   0.2527   0.2580
  0.2671   0.2671   0.2820   0.2820   0.2924   0.3066   0.3356   0.3356
  0.3341   0.3341   0.3381   0.3606   0.3644   0.3989   0.3989   0.3924
  0.4000   0.4001   0.4004   0.4243   0.4244   0.4410   0.4446   0.4448
  0.4538   0.4645   0.4645   0.4721   0.4806   0.4807   0.4846   0.4880
  0.4881   0.4997   0.5160   0.5160   0.5230   0.5336   0.5337   0.5327
  0.5429   0.5430   0.5721   0.5722   0.5796   0.5796   0.5804   0.5985
  0.5985   0.6221   0.6222   0.6323   0.6444   0.6571   0.6725   0.6802
  0.6804   0.6832   0.6981   0.6981   0.7248   0.7250   0.7432   0.7668
  0.7655   0.7681   0.7682   0.7685   0.7685   0.7856   0.8014   0.8015
  0.8082   0.8378   0.8391   0.8394   0.8552   0.8553   0.8565   0.8609
  0.8652   0.8654   0.8949   0.8950   0.8986   0.8981   0.9057   0.9058
  0.9122   0.9152   0.9154   0.9218   0.9415   0.9458   0.9458   0.9497
  0.9608   0.9608   0.9852   0.9852   1.0122   1.0341   1.0341   1.0548
  1.0549   1.0915   1.0916   1.1065   1.1451   1.1538   1.1539   1.1550
  1.1569   1.1570   1.1607   1.1668   1.1684   1.1824   1.1825   1.2071
  1.2075   1.2076   1.2159   1.2160   1.2250   1.2251   1.2354   1.2434
  1.2441   1.2469   1.2470   1.2550   1.2551   1.2690   1.2691   1.2811
  1.2812   1.2860   1.2954   1.3214   1.3215   1.3234   1.3236   1.3512
  1.4033   1.4035   1.4138   1.4673   1.4717   1.4720   1.5084   1.5127
  1.5149   1.5150   1.5176   1.5179   1.5280   1.5498   1.5592   1.5594
  1.6004   1.6005   1.6028   1.6030   1.6187   1.6410   1.6707   1.6984
  1.6933   1.6941   1.6958   1.7030   1.7161   1.7161   1.7642   1.7642
  1.7779   1.7780   1.7804   1.7807   1.7899   1.7963   1.8135   1.8137
  1.8410   1.8410   1.8410   1.8567   1.8616   1.8617   1.8843   1.8871
  1.8872   1.8970   1.8971   1.9085   1.9580   1.9581   1.9703   2.0007
  2.0008   2.0090   2.0091   2.0138   2.0193   2.0215   2.0216   2.0260
  2.0260   2.0447   2.0736   2.0737   2.0789   2.0790   2.0887   2.1000
  2.0997   2.0999   2.1173   2.1146   2.1322   2.1323   2.1408   2.1436
  2.1436   2.1715   2.1716   2.1751   2.1792   2.2155   2.2155   2.2186
  2.2240   2.2362   2.2363   2.2529   2.2564   2.2638   2.2660   2.2662
  2.2774   2.2775   2.2809   2.2810   2.3089   2.3090   2.3156   2.3158
  2.3174   2.3323   2.3348   2.3687   2.3690   2.3760   2.3762   2.3964
  2.4001   2.4001   2.3998   2.4027   2.4180   2.4182   2.4283   2.4285
  2.4378   2.4546   2.4631   2.4631   2.4646   2.4788   2.4811   2.4812
  2.5116   2.5120   2.5168   2.5170   2.5231   2.5231   2.5659   2.5657
  2.5775   2.5776   2.5868   2.5940   2.6111   2.6112   2.6170   2.6274
  2.6274   2.6475   2.6476   2.6490   2.6867   2.6870   2.7165   2.7385
  2.7388   2.7536   2.7536   2.7614   2.7638   2.7651   2.7755   2.7756
  2.8027   2.8138   2.8140   2.8201   2.8203   2.8237   2.8356   2.8358
  2.8507   2.8551   2.8784   2.8785   2.8872   2.8874   2.8970   2.9218
  2.9251   2.9252   2.9746   2.9769   2.9771   2.9938   2.9941   3.0023
  3.0252   3.0253   3.0601   3.0632   3.0738   3.0738   3.0769   3.0769
  3.0990   3.0990   3.1036   3.1262   3.1280   3.1547   3.1547   3.1558
  3.1828   3.1829   3.1932   3.1935   3.2223   3.2225   3.2259   3.2424
  3.2430   3.2433   3.2524   3.3008   3.3175   3.3502   3.3503   3.3566
  3.3569   3.3599   3.3693   3.3694   3.4053   3.4348   3.4348   3.4459
  3.4503   3.4742   3.4744   3.4882   3.5077   3.5077   3.5097   3.5098
  3.5541   3.5543   3.5851   3.5852   3.6726   3.6948   3.6950   3.7042
  3.7076   3.7082   3.7083   3.7484   3.7487   3.7667   3.8458   3.8654
  3.8659   3.8740   3.8822   3.8823   3.9347   3.9353   3.9589   3.9592
  3.9594   3.9611   3.9613   3.9699   3.9862   3.9895   3.9884   3.9917
  3.9921   4.0495   4.0497   4.0499   4.0601   4.0925   4.0925   4.0973
  4.1184   4.1186   4.1305   4.1306   4.2002   4.2006   4.2590   4.2745
  4.3153   4.3156   4.3775   4.4449   4.4447   4.4841   4.4841   4.4934
  4.4938   4.5071   4.5651   4.5655   4.5742   4.5744   4.5758   4.5758
  4.6105   4.6573   4.7326   4.7330   4.8221   4.8225   4.8807   4.9073
  4.9075   4.9717   5.0060   5.0360   5.0361   5.0422   5.0516   5.1257
  5.1294   5.1295   5.1339   5.1341   5.1811   5.1812   5.2056   5.2057
  5.2448   5.2760   5.2827   5.2830   5.2951   5.3254   5.3254   5.3383
  5.3539   5.3540   5.4031   5.4063   5.4211   5.4370   5.4372   5.4439
  5.4606   5.4607   5.4866   5.4867   5.4903   5.5288   5.5289   5.5799
  5.5801   5.5803   5.6074   5.6103   5.6111   5.6113   5.6264   5.6386
  5.6387   5.6419   5.6546   5.6549   5.6917   5.6918   5.7182   5.7183
  5.7433   5.7523   5.7527   5.7529   5.7843   5.7846   5.8006   5.8343
  5.8495   5.8495   5.8629   5.8631   5.9106   5.9150   5.9152   5.9202
  5.9204   5.9223   5.9488   6.0089   6.0090   6.0129   6.0169   6.0164
  6.0176   6.0177   6.0338   6.0339   6.0640   6.0643   6.0645   6.0671
  6.0812   6.0813   6.0930   6.0957   6.1160   6.1163   6.1485   6.1487
  6.1691   6.1694   6.1728   6.1789   6.1902   6.2075   6.2076   6.2088
  6.2227   6.2275   6.2276   6.2358   6.2401   6.2526   6.2529   6.2617
  6.2617   6.2904   6.2904   6.3044   6.3049   6.3049   6.3232   6.3233
  6.3350   6.3352   6.3633   6.3691   6.3733   6.3803   6.3806   6.3896
  6.3896   6.3984   6.3984   6.4132   6.4219   6.4220   6.4302   6.4533
  6.4627   6.4631   6.4641   6.4798   6.4798   6.5327   6.5329   6.5400
  6.5539   6.5541   6.5573   6.5588   6.5599   6.5660   6.5662   6.5901
  6.5905   6.6027   6.6128   6.6397   6.6443   6.6445   6.6537   6.6538
  6.6563   6.6801   6.6802   6.6901   6.6920   6.6922   6.6979   6.6981
  6.7087   6.7170   6.7172   6.7340   6.7435   6.7639   6.7731   6.7746
  6.7747   6.7912   6.7914   6.8029   6.8030   6.8314   6.8462   6.8464
  6.8525   6.8809   6.9000   6.9004   6.9102   6.9175   6.9176   6.9339
  6.9341   6.9633   6.9698   6.9822   6.9823   7.0034   7.0034   7.0193
  7.0195   7.0282   7.0284   7.0547   7.0590   7.0791   7.0794   7.1093
  7.1096   7.1141   7.1142   7.1367   7.1573   7.1682   7.1820   7.1823
  7.1871   7.1872   7.2018   7.2165   7.2167   7.2337   7.2436   7.2436
  7.2570   7.2696   7.2814   7.2896   7.2898   7.3003   7.3007   7.3344
  7.3344   7.3506   7.3508   7.3543   7.3605   7.4035   7.4038   7.4549
  7.4550   7.4772   7.4935   7.4935   7.5342   7.5595   7.5596   7.5753
  7.5757   7.5793   7.5794   7.6345   7.6495   7.6740   7.6744   7.6787
  7.6790   7.7168   7.7173   7.7178   7.7470   7.7471   7.7767   7.8190
  7.8193   7.8247   7.8319   7.8674   7.8676   7.8711   7.8803   7.8845
  7.8846   7.8877   7.8983   7.9074   7.9077   7.9242   7.9245   7.9695
  7.9842   8.0126   8.0129   8.0307   8.0312   8.0591   8.0594   8.0654
  8.0746   8.0749   8.0849   8.1398   8.1400   8.1425   8.1573   8.1783
  8.1922   8.1924   8.2073   8.2075   8.2099   8.2101   8.2199   8.2315
  8.2318   8.2566   8.2566   8.2778   8.3225   8.3238   8.3572   8.3572
  8.3896   8.4332   8.4335   8.4615   8.4624   8.4727   8.5013   8.5015
  8.5188   8.5189   8.5522   8.5560   8.5603   8.5852   8.5853   8.5916
  8.6019   8.6024   8.6031   8.6284   8.6290   8.6747   8.6824   8.6825
  8.7033   8.7145   8.7484   8.7486   8.7515   8.7608   8.7609   8.7661
  8.7664   8.7748   8.8049   8.8051   8.8142   8.8143   8.8293   8.8296
  8.8331   8.8333   8.8370   8.8499   8.8534   8.8562   8.8565   8.8567
  8.9084   8.9178   8.9184   9.0311   9.0446   9.0446   9.0455   9.0559
  9.0562   9.0591   9.0592   9.0594   9.0995   9.1087   9.1091   9.1434
  9.1814   9.1817   9.2349   9.2354   9.2912   9.2913   9.3107   9.3109
  9.3382   9.3453   9.3489   9.3946   9.4201   9.4203   9.4611   9.5202
  9.5202   9.5587   9.5875   9.5876   9.6979   9.7029   9.7035   9.7528
  9.8767   9.8772   9.9159   9.9161   9.9510   9.9541   9.9544  10.0324
 10.0811  10.1025  10.1026  10.1303  10.1424  10.1639  10.1652  10.1773
 10.1778  10.1836  10.2238  10.2242  10.2376  10.2559  10.2832  10.2835
 10.2929  10.2939  10.3169  10.3517  10.3824  10.3829  10.4475  10.4478
 10.4784  10.4790  10.5069  10.5073  10.5132  10.5846  10.5849  10.5952
 10.6146  10.6537  10.7318  10.7324  10.7498  10.7500  10.7797  10.9740
 11.1304  11.1311  11.2246  11.2253  11.2909  11.7274  12.0182  12.0187
 12.6512  12.6855  12.6877  12.7664  12.7701  12.7705  12.8303  12.8307
 12.8312  24.0848  24.3257  24.3269  24.6718  24.9213  24.9219  25.1643
 25.4891  25.6604  25.6623  25.8441  25.9772  25.9776
 --------------------------------------------------------------
 
          Ground-State Mulliken Net Atomic Charges

     Atom                 Charge (a.u.)
  ----------------------------------------
      1 C                    -0.142362
      2 C                    -0.173960
      3 C                     0.081616
      4 C                    -0.000346
      5 C                     0.082050
      6 C                    -0.174083
      7 H                     0.129148
      8 C                    -0.174166
      9 C                    -0.141626
     10 C                    -0.174704
     11 C                     0.081431
     12 C                    -0.174052
     13 C                    -0.142343
     14 C                    -0.173927
     15 H                     0.150219
     16 H                     0.129528
     17 H                     0.129457
     18 H                     0.149603
     19 H                     0.129641
     20 H                     0.129521
     21 H                     0.129783
     22 H                     0.149571
  ----------------------------------------
  Sum of atomic charges =     0.000000

 -----------------------------------------------------------------
                    Cartesian Multipole Moments
 -----------------------------------------------------------------
    Charge (ESU x 10^10)
                -0.0000
    Dipole Moment (Debye)
         X      -0.0033      Y      -0.0007      Z       0.0016
       Tot       0.0037
    Quadrupole Moments (Debye-Ang)
        XX     -66.1741     XY       0.0032     YY     -66.1539
        XZ       0.0061     YZ      -0.0011     ZZ     -83.3686
    Octopole Moments (Debye-Ang^2)
       XXX       0.5563    XXY      -0.6772    XYY      -0.5589
       YYY       0.6653    XXZ       0.0330    XYZ      -0.0202
       YYZ       0.0091    XZZ      -0.0002    YZZ       0.0003
       ZZZ       0.0015
    Hexadecapole Moments (Debye-Ang^3)
      XXXX   -1213.2753   XXXY      -0.0216   XXYY    -404.3763
      XYYY       0.0726   YYYY   -1212.7909   XXXZ       0.0368
      XXYZ       0.0293   XYYZ       0.0452   YYYZ      -0.0618
      XXZZ    -273.3137   XYZZ      -0.0009   YYZZ    -273.2669
      XZZZ       0.0091   YZZZ      -0.0010   ZZZZ    -100.4383
 -----------------------------------------------------------------
 Total job time:  185702.63s(wall), 169107.45s(cpu) 
 Thu Apr 18 13:27:53 2024

======= MOLDEN-FORMATTED INPUT FILE FOLLOWS =======
[Molden Format]
[Atoms] (Angs)
  C      1    6      0.62436798     -2.73626214      0.00031643
  C      2    6     -0.70157359     -2.33613482     -0.00016497
  C      3    6     -1.04198248     -0.96709712     -0.00084390
  C      4    6     -0.00005481      0.00007728     -0.00078316
  C      5    6      1.35845885     -0.41902044     -0.00069951
  C      6    6      1.64521047     -1.80078036      0.00050704
  H      7    1      2.68039781     -2.12018594      0.00107922
  C      8    6     -2.38241778     -0.52446337     -0.00016828
  C      9    6     -2.68173158      0.82733121      0.00104712
  C     10    6     -1.67264212      1.77591527      0.00049042
  C     11    6     -0.31634690      1.38622343     -0.00052931
  C     12    6      0.73677529      2.32527769     -0.00057477
  C     13    6      2.05760655      1.90848703      0.00031420
  C     14    6      2.37430062      0.56061737      0.00030678
  H     15    1      0.86423664     -3.79156668      0.00175492
  H     16    1     -1.49545799     -3.07315912     -0.00141561
  H     17    1     -3.17639353     -1.26133398     -0.00046894
  H     18    1     -3.71635643      1.14679177      0.00190819
  H     19    1     -1.91342491      2.83159982      0.00055582
  H     20    1      3.40936486      0.24074642      0.00168506
  H     21    1      0.49658312      3.38108588     -0.00074208
  H     22    1      2.85122754      2.64499573      0.00033492

======= END OF MOLDEN-FORMATTED INPUT FILE =======


        *************************************************************
        *                                                           *
        *  Thank you very much for using Q-Chem.  Have a nice day.  *
        *                                                           *
        *************************************************************


