                  Welcome to Q-Chem
     A Quantum Leap Into The Future Of Chemistry


 Q-Chem 6.0 (devel), Q-Chem, Inc., Pleasanton, CA (2022)

 E. Epifanovsky,  A. T. B. Gilbert,  Xintian Feng,  Joonho Lee,  Yuezhi Mao,  
 N. Mardirossian,  P. Pokhilko,  A. White,  M. Wormit,  M. P. Coons,  
 A. L. Dempwolff,  Zhengting Gan,  D. Hait,  P. R. Horn,  L. D. Jacobson,  
 I. Kaliman,  J. Kussmann,  A. W. Lange,  Ka Un Lao,  D. S. Levine,  Jie Liu,  
 S. C. McKenzie,  A. F. Morrison,  K. Nanda,  F. Plasser,  D. R. Rehn,  
 M. L. Vidal,  Zhi-Qiang You,  Ying Zhu,  B. Alam,  B. Albrecht,  
 A. Aldossary,  E. Alguire,  J. H. Andersen,  V. Athavale,  D. Barton,  
 K. Begam,  A. Behn,  N. Bellonzi,  Y. A. Bernard,  E. J. Berquist,  
 H. Burton,  A. Carreras,  K. Carter-Fenk,  Romit Chakraborty,  
 Chandrima Chakravarty,  Junhan Chen,  A. D. Chien,  K. D. Closser,  
 V. Cofer-Shabica,  L. Cunha,  S. Dasgupta,  Jia Deng,  M. de Wergifosse,  
 M. Diedenhofen,  Hainam Do,  S. Ehlert,  Po-Tung Fang,  S. Fatehi,  
 Qingguo Feng,  T. Friedhoff,  B. Ganoe,  J. Gayvert,  Qinghui Ge,  
 G. Gidofalvi,  M. Goldey,  J. Gomes,  C. Gonzalez-Espinoza,  S. Gulania,  
 A. Gunina,  J. A. Gyamfi,  M. W. D. Hanson-Heine,  P. H. P. Harbach,  
 A. W. Hauser,  M. F. Herbst,  M. Hernandez Vera,  M. Hodecker,  
 Z. C. Holden,  S. Houck,  Xunkun Huang,  Kerwin Hui,  B. C. Huynh,  
 K. Ikeda,  M. Ivanov,  Hyunjun Ji,  Zuxin Jin,  Hanjie Jiang,  B. Kaduk,  
 S. Kaehler,  R. Kang,  K. Khistyaev,  Jaehoon Kim,  Yongbin Kim,  
 P. Klunzinger,  Z. Koczor-Benda,  Joong Hoon Koh,  D. Kosenkov,  
 Saikiran Kotaru,  L. Koulias,  T. Kowalczyk,  C. M. Krauter,  K. Kue,  
 A. Kunitsa,  T. Kus,  A. Landau,  K. V. Lawler,  D. Lefrancois,  S. Lehtola,  
 Rain Li,  Shaozhi Li,  Yi-Pei Li,  Jiashu Liang,  M. Liebenthal,  
 Hung-Hsuan Lin,  You-Sheng Lin,  Fenglai Liu,  Kuan-Yu Liu,  
 M. Loipersberger,  A. Luenser,  C. Malbon,  A. Manjanath,  P. Manohar,  
 E. Mansoor,  S. F. Manzer,  Shan-Ping Mao,  A. V. Marenich,  T. Markovich,  
 S. Mason,  F. Matz,  S. A. Maurer,  P. F. McLaughlin,  M. F. S. J. Menger,  
 J.-M. Mewes,  S. A. Mewes,  P. Morgante,  Mohammad Mostafanejad,  
 J. W. Mullinax,  K. J. Oosterbaan,  G. Paran,  V. Parravicini,  
 Alexander C. Paul,  Suranjan K. Paul,  F. Pavosevic,  Zheng Pei,  S. Prager,  
 E. I. Proynov,  E. Ramos,  B. Rana,  A. E. Rask,  A. Rettig,  R. M. Richard,  
 F. Rob,  E. Rossomme,  T. Scheele,  M. Scheurer,  M. Schneider,  
 P. E. Schneider,  N. Sergueev,  S. M. Sharada,  Hengyuan Shen,  
 W. Skomorowski,  D. W. Small,  C. J. Stein,  Yingli Su,  Yu-Chuan Su,  
 E. J. Sundstrom,  Zhen Tao,  J. Thirman,  Hung-Yi Tsai,  T. Tsuchimochi,  
 N. M. Tubman,  C. Utku,  S. P. Veccham,  O. Vydrov,  J. Wenzel,  
 Jonathan Wong,  J. Witte,  A. Yamada,  Chou-Hsun Yang,  Kun Yao,  
 S. Yeganeh,  S. R. Yost,  A. Zech,  F. Zeller,  Igor Ying Zhang,  
 Xing Zhang,  Yu Zhang,  D. Zuev,  A. Aspuru-Guzik,  A. T. Bell,  
 N. A. Besley,  K. B. Bravaya,  B. R. Brooks,  D. Casanova,  Jeng-Da Chai,  
 Hsing-Ta Chen,  S. Coriani,  C. J. Cramer,  A. E. DePrince, III,  
 R. A. DiStasio Jr.,  A. Dreuw,  B. D. Dunietz,  T. R. Furlani,  
 W. A. Goddard III,  S. Grimme,  S. Hammes-Schiffer,  T. Head-Gordon,  
 W. J. Hehre,  Chao-Ping Hsu,  T.-C. Jagau,  Yousung Jung,  A. Klamt,  
 Jing Kong,  D. S. Lambrecht,  Xiangyuan Li,  WanZhen Liang,  N. J. Mayhall,  
 C. W. McCurdy,  J. B. Neaton,  T. Neudecker,  C. Ochsenfeld,  
 J. A. Parkhill,  R. Peverati,  V. A. Rassolov,  Haisheng Ren,  Yihan Shao,  
 L. V. Slipchenko,  R. P. Steele,  J. E. Subotnik,  A. J. W. Thom,  
 A. Tkatchenko,  D. G. Truhlar,  T. Van Voorhis,  Fan Wang,  
 T. A. Wesolowski,  K. B. Whaley,  H. L. Woodcock III,  P. M. Zimmerman,  
 S. Faraji,  P. M. W. Gill,  M. Head-Gordon,  J. M. Herbert,  A. I. Krylov

 Contributors to earlier versions of Q-Chem not listed above: 
 R. D. Adamson,  B. Austin,  R. Baer,  J. Baker,  G. J. O. Beran,  
 K. Brandhorst,  S. T. Brown,  E. F. C. Byrd,  Arup K. Chakraborty,  
 G. K. L. Chan,  Chun-Min Chang,  Yunqing Chen,  C.-L. Cheng,  
 Siu Hung Chien,  D. M. Chipman,  D. L. Crittenden,  H. Dachsel,  
 R. J. Doerksen,  A. D. Dutoi,  R. G. Edgar,  J. Fosso-Tande,  
 L. Fusti-Molnar,  D. Ghosh,  A. Ghysels,  A. Golubeva-Zadorozhnaya,  
 J. Gonthier,  M. S. Gordon,  S. R. Gwaltney,  G. Hawkins,  J. E. Herr,  
 A. Heyden,  S. Hirata,  E. G. Hohenstein,  G. Kedziora,  F. J. Keil,  
 C. Kelley,  Jihan Kim,  R. A. King,  R. Z. Khaliullin,  P. P. Korambath,  
 W. Kurlancheek,  A. Laurent,  A. M. Lee,  M. S. Lee,  S. V. Levchenko,  
 Ching Yeh Lin,  D. Liotard,  E. Livshits,  R. C. Lochan,  I. Lotan,  
 L. A. Martinez-Martinez,  P. E. Maslen,  N. Nair,  D. P. O'Neill,  
 D. Neuhauser,  E. Neuscamman,  C. M. Oana,  R. Olivares-Amaya,  R. Olson,  
 T. M. Perrine,  B. Peters,  P. A. Pieniazek,  A. Prociuk,  Y. M. Rhee,  
 J. Ritchie,  M. A. Rohrdanz,  E. Rosta,  N. J. Russ,  H. F. Schaefer III,  
 M. W. Schmidt,  N. E. Schultz,  S. Sharma,  N. Shenvi,  C. D. Sherrill,  
 A. C. Simmonett,  A. Sodt,  T. Stein,  D. Stuck,  K. S. Thanthiriwatte,  
 V. Vanovschi,  L. Vogt,  Tao Wang,  A. Warshel,  M. A. Watson,  
 C. F. Williams,  Q. Wu,  X. Xu,  Jun Yang,  W. Zhang,  Yan Zhao

   Please cite Q-Chem as follows:
  "Software for the frontiers of quantum chemistry:
   An overview of developments in the Q-Chem 5 package"
   J. Chem. Phys. 155, 084801 (2021)
   https://doi.org/10.1063/5.0055522 (open access)

 Q-Chem 6.0.1 for Intel X86 EM64T Linux

 Parts of Q-Chem use Armadillo 9.900.5 (Nocturnal Misbehaviour).
 http://arma.sourceforge.net/

 Q-Chem begins on Mon Jun  3 14:57:30 2024  

 Host: atlas-318
0

     Scratch files written to ./qchem16512//
 Processing $rem in /scratch/abel/SOFTWARE/qchem/config/preferences:
 Processing $rem in /dipc/acebg/.qchemrc:
 Core orbitals will be frozen

 Checking the input file for inconsistencies... 	...done.

--------------------------------------------------------------
User input:
--------------------------------------------------------------
$comment
 EOM-CC CALCULATION
$end

$molecule
 READ 2Tm_doublet_anion.molecule
$end

$rem
!**CALCULATION TYPE***     
JOBTYPE            sp    
BASIS              cc-pVDZ

!***SCF REFERENCE***
!SKIP_SCFMAN        FALSE
UNRESTRICTED       FALSE
!SCF_GUESS          core
!SCF_GUESS_MIX      FALSE
!SCF_GUESS_ALWAYS   FALSE
MAX_SCF_CYCLES     500
!SCF_CONVERGENCE    10
SCF_ALGORITHM      DIIS_GDM !DIIS,DM,DIIS_DM,GDM,DIIS_GDM,GD

!SYMMETRY           TRUE   !use of symmetry for calculating integrals
!SYM_IGNORE         FALSE  !turn off using symmetry
!SYM_TOL            5      !tolerance for determining point group
!USE_ABELIAN_SUBGROUP      !define to use abelian group

!THRESH             14
SCF_FINAL_PRINT     1 !0,1,2,3

!****CCSD****
CORRELATION        CCSD
!CC_CONVERGENCE     6
!CC_MAX_ITER        200
CC_PRINT	   2
!CHOLESKY_TOL       3 !Toler. decomposition 2e integrals
CC_REF_PROP  	   1 !one-particle CCSD properties calculation
!CC_REF_PROP_TE	   0 !two-particle CCSD properties calculation
!CC_MEMORY	   5600
!CC_FNO_THRESH
!CC_BACKEND	   XM !Used to specify the computational back-end of CCMAN2.

!****EOM****
METHOD             EOM-MP2
IP_STATES	   [30] !IP, AE, SF, EE
CC_STATE_TO_OPT    [1,1]
CC_EOM_PROP        1
CC_EOM_PROP_TE	   1
CC_TRANS_PROP      1
CALC_SOC           TRUE   !calculate SOC for EOM-CC, RAS-CI, ADC, TDDFT/TDA and TDDFT

!****MEMORY****
MEM_TOTAL 90000
CC_MEMORY 72000
MEM_STATIC 1000

!**Molecular Properties and Analysis **                                                                                          
!POP_MULLIKEN       TRUE   !Run Mulliken population analysis
!LOWDIN_POPULATION  TRUE   !Run Löwdin population analysis
GUI                 2       !Checkpoints generation
!STATE_ANALYSIS     TRUE
$end

--------------------------------------------------------------
 ----------------------------------------------------------------
             Standard Nuclear Orientation (Angstroms)
    I     Atom           X                Y                Z
 ----------------------------------------------------------------
    1      C       0.6243679838    -2.7362621432     0.0003164261
    2      C      -0.7015735948    -2.3361348215    -0.0001649656
    3      C      -1.0419824835    -0.9670971198    -0.0008439034
    4      C      -0.0000548132     0.0000772801    -0.0007831605
    5      C       1.3584588456    -0.4190204443    -0.0006995145
    6      C       1.6452104651    -1.8007803647     0.0005070396
    7      H       2.6803978057    -2.1201859378     0.0010792188
    8      C      -2.3824177811    -0.5244633738    -0.0001682759
    9      C      -2.6817315780     0.8273312149     0.0010471198
   10      C      -1.6726421175     1.7759152657     0.0004904235
   11      C      -0.3163469004     1.3862234269    -0.0005293069
   12      C       0.7367752863     2.3252776938    -0.0005747718
   13      C       2.0576065541     1.9084870347     0.0003141988
   14      C       2.3743006152     0.5606173675     0.0003067751
   15      H       0.8642366403    -3.7915666760     0.0017549180
   16      H      -1.4954579885    -3.0731591179    -0.0014156115
   17      H      -3.1763935341    -1.2613339838    -0.0004689351
   18      H      -3.7163564276     1.1467917750     0.0019081870
   19      H      -1.9134249087     2.8315998155     0.0005558156
   20      H       3.4093648619     0.2407464211     0.0016850583
   21      H       0.4965831230     3.3810858808    -0.0007420755
   22      H       2.8512275382     2.6449957256     0.0003349189
 ----------------------------------------------------------------
 Molecular Point Group                 C1    NOp =  1
 Largest Abelian Subgroup              C1    NOp =  1
 Nuclear Repulsion Energy =         700.08505759 hartrees
 There are       44 alpha and       44 beta electrons
 Requested basis set is cc-pVDZ
 There are 105 shells and 227 basis functions
 Total memory of 90000 MB is distributed as follows: 
   MEM_STATIC is set to 1000 MB
   QALLOC/CCMAN JOB total memory use is  89000 MB
 Warning: actual memory use might exceed 90000 MB

 Total QAlloc Memory Limit  90000 MB
 Mega-Array Size       978 MB
 MEM_STATIC part      1000 MB

 A cutoff of  1.0D-14 yielded   5181 shell pairs
 There are     24607 function pairs (     27606 Cartesian)
 Smallest overlap matrix eigenvalue = 1.32E-04

 Scale SEOQF with 1.000000e-01/1.000000e-01/1.000000e+00

 Standard Electronic Orientation quadrupole field applied
 Nucleus-field energy     =     0.0000000272 hartrees
 Guess from superposition of atomic densities
 Warning:  Energy on first SCF cycle will be non-variational
 SAD guess density has 87.000000 electrons

 -----------------------------------------------------------------------
  General SCF calculation program by
  Eric Jon Sundstrom, Paul Horn, Yuezhi Mao, Dmitri Zuev, Alec White,
  David Stuck, Shaama M.S., Shane Yost, Joonho Lee, David Small,
  Daniel Levine, Susi Lehtola, Hugh Burton, Evgeny Epifanovsky,
  Bang C. Huynh
 -----------------------------------------------------------------------
 Hartree-Fock
 A restricted SCF calculation will be
 performed using DIIS, GDM
 SCF converges when RMS gradient is below 1.0e-08
 ---------------------------------------
  Cycle       Energy         DIIS error
 ---------------------------------------
    1    -503.8622349560      5.80e-02  
    2    -497.4164488967      3.96e-03  Done DIIS. Switching to GDM
 ---------------------------------------
  Cycle       Energy        RMS Gradient
 ---------------------------------------
    1    -497.4164488967      7.49e-02   Descent step
    2    -497.5552510847      1.96e-02   Normal BFGS step
    3    -497.5718413301      6.70e-03   Normal BFGS step
    4    -497.5726544134      7.68e-03   Normal BFGS step
    5    -497.5728479942      1.76e-03   Normal BFGS step
    6    -497.5729070331      6.61e-04   Normal BFGS step
    7    -497.5729166096      8.89e-05   Normal BFGS step
    8    -497.5729168346      5.91e-05   Normal BFGS step
    9    -497.5729168642      1.20e-05   Normal BFGS step
   10    -497.5729168659      4.58e-06   Normal BFGS step
   11    -497.5729168662      7.77e-07   Normal BFGS step
   12    -497.5729168662      4.10e-07   Normal BFGS step
   13    -497.5729168662      1.12e-07   Normal BFGS step
   14    -497.5729168662      3.09e-08   Normal BFGS step
   15    -497.5729168662      2.02e-08   Normal BFGS step
   16    -497.5729168662      8.81e-09  Convergence criterion met
 ---------------------------------------
 DFT Correlation    Energy =   0.00000000000000
 DFT Exchange       Energy =   0.00000000000000
 HF Exchange        Energy = -71.02430743089077
 Kinetic            Energy =   0.00000000000000
 Nuclear Attraction Energy =   0.00000000000000
 One-Electron       Energy = -2076.09597816512223
 Total Coulomb      Energy = 949.46231111722977
 Final Alpha MO Eigenvalues
            1           2           3           4           5           6
    1 -11.0855459 -11.0855294 -11.0855051 -11.0845751 -11.0845196 -11.0844898
            7           8           9          10          11          12
    1 -11.0732439 -11.0479423 -11.0478563 -11.0478419 -11.0477762 -11.0477369
           13          14          15          16          17          18
    1 -11.0476501  -1.0230242  -0.9462427  -0.9461670  -0.8485949  -0.8485664
           19          20          21          22          23          24
    1  -0.8446338  -0.7395123  -0.6781727  -0.6663146  -0.6662555  -0.5431608
           25          26          27          28          29          30
    1  -0.5431083  -0.5221105  -0.5220413  -0.4831813  -0.4262408  -0.4261815
           31          32          33          34          35          36
    1  -0.4145293  -0.4088110  -0.3847885  -0.3759901  -0.3759075  -0.3574026
           37          38          39          40          41          42
    1  -0.3040032  -0.3037841  -0.2960449  -0.2960043  -0.1770436  -0.1770208
           43          44          45          46          47          48
    1  -0.1658496  -0.0290848   0.2868914   0.2877884   0.2878183   0.3165880
           49          50          51          52          53          54
    1   0.3335529   0.3335721   0.3582851   0.3583331   0.3699985   0.4098381
           55          56          57          58          59          60
    1   0.4194569   0.4195020   0.4397095   0.4397405   0.5523099   0.5707902
           61          62          63          64          65          66
    1   0.5708503   0.5985986   0.6189777   0.6190135   0.6395906   0.6476152
           67          68          69          70          71          72
    1   0.6559246   0.6559897   0.7465250   0.7465539   0.8117197   0.8283887
           73          74          75          76          77          78
    1   0.8342454   0.8350630   0.8350952   0.8483273   0.8509910   0.8510675
           79          80          81          82          83          84
    1   0.8523397   0.8523457   0.9005605   0.9006598   0.9035393   0.9035646
           85          86          87          88          89          90
    1   0.9078026   0.9160363   0.9227579   0.9259573   0.9259615   0.9306314
           91          92          93          94          95          96
    1   0.9366899   0.9367134   0.9755963   0.9785396   1.0185623   1.0186015
           97          98          99         100         101         102
    1   1.0323746   1.0323842   1.0636620   1.0700004   1.0809253   1.0810217
          103         104         105         106         107         108
    1   1.0857418   1.0857875   1.1146700   1.1628015   1.1628308   1.2176760
          109         110         111         112         113         114
    1   1.2342002   1.2343341   1.2566485   1.2609308   1.2609783   1.2872612
          115         116         117         118         119         120
    1   1.2988769   1.2988861   1.3197818   1.3412065   1.3509443   1.3527012
          121         122         123         124         125         126
    1   1.3527140   1.3675409   1.3808290   1.3809246   1.4117019   1.4117215
          127         128         129         130         131         132
    1   1.4363992   1.4444049   1.4444670   1.4594522   1.4594748   1.5113134
          133         134         135         136         137         138
    1   1.5113614   1.5196849   1.5241338   1.5242374   1.5716821   1.6098422
          139         140         141         142         143         144
    1   1.7316881   1.7317413   1.7375708   1.8051302   1.8051849   1.8203013
          145         146         147         148         149         150
    1   1.8272898   1.8273578   1.8770750   1.8828807   1.8879684   1.8880191
          151         152         153         154         155         156
    1   1.9223383   1.9223708   1.9661843   1.9662588   1.9723594   2.0358259
          157         158         159         160         161         162
    1   2.0451151   2.0528590   2.0531125   2.0630895   2.0757217   2.0760484
          163         164         165         166         167         168
    1   2.0945849   2.0955976   2.1190607   2.1190891   2.1299706   2.1300163
          169         170         171         172         173         174
    1   2.1586163   2.1587701   2.1984528   2.1986539   2.2248611   2.2480541
          175         176         177         178         179         180
    1   2.2481386   2.2502792   2.2680666   2.2681644   2.2994938   2.3052893
          181         182         183         184         185         186
    1   2.3197588   2.3198403   2.3225140   2.3227393   2.3287347   2.3352263
          187         188         189         190         191         192
    1   2.3527948   2.3591786   2.3592002   2.4649394   2.4650635   2.5325376
          193         194         195         196         197         198
    1   2.5325912   2.5610209   2.5680631   2.5762548   2.5820907   2.5879212
          199         200         201         202         203         204
    1   2.5881058   2.6304925   2.6306630   2.7297078   2.7299294   2.7325738
          205         206         207         208         209         210
    1   2.8469206   2.8471080   2.8549307   2.9017043   2.9017544   2.9828366
          211         212         213         214         215         216
    1   3.0203759   3.0204649   3.0895982   3.0896688   3.0971424   3.2025125
          217         218         219         220         221         222
    1   3.2027112   3.2091771   3.2786254   3.2966223   3.3582040   3.3585194
          223         224         225         226         227
    1   3.4322954   3.4325716   3.9227036   4.1013602   4.1015992
 SCF time:   CPU 101.08s  wall 103.00s 
 SCF   energy in the final basis set =     -497.5729168662
 Total energy in the final basis set =     -497.5729168662
 mp2 is not implemented in computing transition properties!


 ------------------------------------------------------------------------------

   CCMAN2: suite of methods based on coupled cluster
           and equation of motion theories.

   Components:
   * libvmm-1.3-trunk
     by Evgeny Epifanovsky, Ilya Kaliman.
   * libtensor-2.5-trunk
     by Evgeny Epifanovsky, Michael Wormit, Dmitry Zuev, Sam Manzer, 
        Ilya Kaliman.
   * libcc-2.5-trunk
     by Evgeny Epifanovsky, Arik Landau, Tomasz Kus, Kirill Khistyaev, 
        Dmitry Zuev, Prashant Manohar, Xintian Feng, Anna Krylov, 
        Matthew Goldey, Alec White, Thomas Jagau, Kaushik Nanda, 
        Anastasia Gunina, Alexander Kunitsa, Joonho Lee.

   CCMAN original authors:
   Anna I. Krylov, C. David Sherrill, Steven R. Gwaltney,
   Edward F. C. Byrd (2000)
   Sergey V. Levchenko, Lyudmila V. Slipchenko, Tao Wang,
   Ana-Maria C. Cristian (2003)
   Piotr A. Pieniazek, C. Melania Oana, Evgeny Epifanovsky (2007)
   Prashant Manohar (2009)

 ------------------------------------------------------------------------------


 Allocating and initializing 72000MB of RAM...
 Calculation will run on 1 core.

 
 Alpha MOs, Restricted
 -- Occupied --                  
-11.086 -11.086 -11.086 -11.085 -11.085 -11.084 -11.073 -11.048
  1 A     2 A     3 A     4 A     5 A     6 A     7 A     8 A                  
-11.048 -11.048 -11.048 -11.048 -11.048  -1.023  -0.946  -0.946
  9 A    10 A    11 A    12 A    13 A    14 A    15 A    16 A                  
 -0.849  -0.849  -0.845  -0.740  -0.678  -0.666  -0.666  -0.543
 17 A    18 A    19 A    20 A    21 A    22 A    23 A    24 A                  
 -0.543  -0.522  -0.522  -0.483  -0.426  -0.426  -0.415  -0.409
 25 A    26 A    27 A    28 A    29 A    30 A    31 A    32 A                  
 -0.385  -0.376  -0.376  -0.357  -0.304  -0.304  -0.296  -0.296
 33 A    34 A    35 A    36 A    37 A    38 A    39 A    40 A                  
 -0.177  -0.177  -0.166  -0.029
 41 A    42 A    43 A    44 A                                                  
 -- Virtual --                   
  0.287   0.288   0.288   0.317   0.334   0.334   0.358   0.358
 45 A    46 A    47 A    48 A    49 A    50 A    51 A    52 A                  
  0.370   0.410   0.419   0.420   0.440   0.440   0.552   0.571
 53 A    54 A    55 A    56 A    57 A    58 A    59 A    60 A                  
  0.571   0.599   0.619   0.619   0.640   0.648   0.656   0.656
 61 A    62 A    63 A    64 A    65 A    66 A    67 A    68 A                  
  0.747   0.747   0.812   0.828   0.834   0.835   0.835   0.848
 69 A    70 A    71 A    72 A    73 A    74 A    75 A    76 A                  
  0.851   0.851   0.852   0.852   0.901   0.901   0.904   0.904
 77 A    78 A    79 A    80 A    81 A    82 A    83 A    84 A                  
  0.908   0.916   0.923   0.926   0.926   0.931   0.937   0.937
 85 A    86 A    87 A    88 A    89 A    90 A    91 A    92 A                  
  0.976   0.979   1.019   1.019   1.032   1.032   1.064   1.070
 93 A    94 A    95 A    96 A    97 A    98 A    99 A   100 A                  
  1.081   1.081   1.086   1.086   1.115   1.163   1.163   1.218
101 A   102 A   103 A   104 A   105 A   106 A   107 A   108 A                  
  1.234   1.234   1.257   1.261   1.261   1.287   1.299   1.299
109 A   110 A   111 A   112 A   113 A   114 A   115 A   116 A                  
  1.320   1.341   1.351   1.353   1.353   1.368   1.381   1.381
117 A   118 A   119 A   120 A   121 A   122 A   123 A   124 A                  
  1.412   1.412   1.436   1.444   1.444   1.459   1.459   1.511
125 A   126 A   127 A   128 A   129 A   130 A   131 A   132 A                  
  1.511   1.520   1.524   1.524   1.572   1.610   1.732   1.732
133 A   134 A   135 A   136 A   137 A   138 A   139 A   140 A                  
  1.738   1.805   1.805   1.820   1.827   1.827   1.877   1.883
141 A   142 A   143 A   144 A   145 A   146 A   147 A   148 A                  
  1.888   1.888   1.922   1.922   1.966   1.966   1.972   2.036
149 A   150 A   151 A   152 A   153 A   154 A   155 A   156 A                  
  2.045   2.053   2.053   2.063   2.076   2.076   2.095   2.096
157 A   158 A   159 A   160 A   161 A   162 A   163 A   164 A                  
  2.119   2.119   2.130   2.130   2.159   2.159   2.198   2.199
165 A   166 A   167 A   168 A   169 A   170 A   171 A   172 A                  
  2.225   2.248   2.248   2.250   2.268   2.268   2.299   2.305
173 A   174 A   175 A   176 A   177 A   178 A   179 A   180 A                  
  2.320   2.320   2.323   2.323   2.329   2.335   2.353   2.359
181 A   182 A   183 A   184 A   185 A   186 A   187 A   188 A                  
  2.359   2.465   2.465   2.533   2.533   2.561   2.568   2.576
189 A   190 A   191 A   192 A   193 A   194 A   195 A   196 A                  
  2.582   2.588   2.588   2.630   2.631   2.730   2.730   2.733
197 A   198 A   199 A   200 A   201 A   202 A   203 A   204 A                  
  2.847   2.847   2.855   2.902   2.902   2.983   3.020   3.020
205 A   206 A   207 A   208 A   209 A   210 A   211 A   212 A                  
  3.090   3.090   3.097   3.203   3.203   3.209   3.279   3.297
213 A   214 A   215 A   216 A   217 A   218 A   219 A   220 A                  
  3.358   3.359   3.432   3.433   3.923   4.101   4.102
221 A   222 A   223 A   224 A   225 A   226 A   227 A                          
 
 Beta MOs, Restricted
 -- Occupied --                  
-11.086 -11.086 -11.086 -11.085 -11.085 -11.084 -11.073 -11.048
  1 A     2 A     3 A     4 A     5 A     6 A     7 A     8 A                  
-11.048 -11.048 -11.048 -11.048 -11.048  -1.023  -0.946  -0.946
  9 A    10 A    11 A    12 A    13 A    14 A    15 A    16 A                  
 -0.849  -0.849  -0.845  -0.740  -0.678  -0.666  -0.666  -0.543
 17 A    18 A    19 A    20 A    21 A    22 A    23 A    24 A                  
 -0.543  -0.522  -0.522  -0.483  -0.426  -0.426  -0.415  -0.409
 25 A    26 A    27 A    28 A    29 A    30 A    31 A    32 A                  
 -0.385  -0.376  -0.376  -0.357  -0.304  -0.304  -0.296  -0.296
 33 A    34 A    35 A    36 A    37 A    38 A    39 A    40 A                  
 -0.177  -0.177  -0.166  -0.029
 41 A    42 A    43 A    44 A                                                  
 -- Virtual --                   
  0.287   0.288   0.288   0.317   0.334   0.334   0.358   0.358
 45 A    46 A    47 A    48 A    49 A    50 A    51 A    52 A                  
  0.370   0.410   0.419   0.420   0.440   0.440   0.552   0.571
 53 A    54 A    55 A    56 A    57 A    58 A    59 A    60 A                  
  0.571   0.599   0.619   0.619   0.640   0.648   0.656   0.656
 61 A    62 A    63 A    64 A    65 A    66 A    67 A    68 A                  
  0.747   0.747   0.812   0.828   0.834   0.835   0.835   0.848
 69 A    70 A    71 A    72 A    73 A    74 A    75 A    76 A                  
  0.851   0.851   0.852   0.852   0.901   0.901   0.904   0.904
 77 A    78 A    79 A    80 A    81 A    82 A    83 A    84 A                  
  0.908   0.916   0.923   0.926   0.926   0.931   0.937   0.937
 85 A    86 A    87 A    88 A    89 A    90 A    91 A    92 A                  
  0.976   0.979   1.019   1.019   1.032   1.032   1.064   1.070
 93 A    94 A    95 A    96 A    97 A    98 A    99 A   100 A                  
  1.081   1.081   1.086   1.086   1.115   1.163   1.163   1.218
101 A   102 A   103 A   104 A   105 A   106 A   107 A   108 A                  
  1.234   1.234   1.257   1.261   1.261   1.287   1.299   1.299
109 A   110 A   111 A   112 A   113 A   114 A   115 A   116 A                  
  1.320   1.341   1.351   1.353   1.353   1.368   1.381   1.381
117 A   118 A   119 A   120 A   121 A   122 A   123 A   124 A                  
  1.412   1.412   1.436   1.444   1.444   1.459   1.459   1.511
125 A   126 A   127 A   128 A   129 A   130 A   131 A   132 A                  
  1.511   1.520   1.524   1.524   1.572   1.610   1.732   1.732
133 A   134 A   135 A   136 A   137 A   138 A   139 A   140 A                  
  1.738   1.805   1.805   1.820   1.827   1.827   1.877   1.883
141 A   142 A   143 A   144 A   145 A   146 A   147 A   148 A                  
  1.888   1.888   1.922   1.922   1.966   1.966   1.972   2.036
149 A   150 A   151 A   152 A   153 A   154 A   155 A   156 A                  
  2.045   2.053   2.053   2.063   2.076   2.076   2.095   2.096
157 A   158 A   159 A   160 A   161 A   162 A   163 A   164 A                  
  2.119   2.119   2.130   2.130   2.159   2.159   2.198   2.199
165 A   166 A   167 A   168 A   169 A   170 A   171 A   172 A                  
  2.225   2.248   2.248   2.250   2.268   2.268   2.299   2.305
173 A   174 A   175 A   176 A   177 A   178 A   179 A   180 A                  
  2.320   2.320   2.323   2.323   2.329   2.335   2.353   2.359
181 A   182 A   183 A   184 A   185 A   186 A   187 A   188 A                  
  2.359   2.465   2.465   2.533   2.533   2.561   2.568   2.576
189 A   190 A   191 A   192 A   193 A   194 A   195 A   196 A                  
  2.582   2.588   2.588   2.630   2.631   2.730   2.730   2.733
197 A   198 A   199 A   200 A   201 A   202 A   203 A   204 A                  
  2.847   2.847   2.855   2.902   2.902   2.983   3.020   3.020
205 A   206 A   207 A   208 A   209 A   210 A   211 A   212 A                  
  3.090   3.090   3.097   3.203   3.203   3.209   3.279   3.297
213 A   214 A   215 A   216 A   217 A   218 A   219 A   220 A                  
  3.358   3.359   3.432   3.433   3.923   4.101   4.102
221 A   222 A   223 A   224 A   225 A   226 A   227 A                          

 Occupation and symmetry of molecular orbitals

 Point group: C1 (1 irreducible representation).

                           A     All 
 -------------------------------------
 All molecular orbitals:
  - Alpha                  227   227 
  - Beta                   227   227 
 -------------------------------------
 Alpha orbitals:
  - Frozen occupied        13    13  
  - Active occupied        31    31  
  - Active virtual         183   183 
  - Frozen virtual         0     0   
 -------------------------------------
 Beta orbitals:
  - Frozen occupied        13    13  
  - Active occupied        31    31  
  - Active virtual         183   183 
  - Frozen virtual         0     0   
 -------------------------------------

 Import integrals:   CPU 0.00 s  wall 0.00 s

 Import integrals:   CPU 100.50 s  wall 102.43 s

 Computing CCSD intermediates for later calculations in double precision
 Finished.

 MP2 amplitudes:   CPU 374.70 s  wall 375.61 s

        Solving for EOMIP-CCSD A transitions.

Running a double precision version
      EOMIP-CCSD/MP2 right amplitudes will be solved using Davidson.
        Amplitudes will be solved using standard  algorithm.
     Hard-coded thresholds: 
     LinDepThresh=1.00e-15  NormThresh=1.00e-06  ReorthogonThresh=1.00e-02

      Roots     MaxVec    MaxIter   Precond   Conv      Shift    
      30        120       60        1         1.00e-05  0.00e+00  
 ------------------------------------------------------------------------------
      Iter ConvRoots NVecs ResNorm^2 Current eigenvalues (eV)
 ------------------------------------------------------------------------------
      0    0      30    1.34e-01   3.2525   6.8661   6.9429   6.9435   9.7897   9.7908   10.0790   10.0847   11.3815   11.8180   11.8200   12.0499   12.5734   13.0412   13.2369   13.2384   14.5465   15.7052   15.7069   16.1377   16.1392   19.3956   19.3969   19.7147   21.2120   23.9541   24.0437   24.0444   26.5690   26.5711   
      1    0      60    2.33e-02   1.4258   4.8615   4.8931   4.8936   7.1946   7.1995   7.5353   7.5365   8.5331   9.0599   9.0619   9.5801   9.8542   9.8747   10.1858   10.1872   11.8013   12.6261   12.6276   13.0239   13.0251   15.8392   15.8407   16.0709   17.2915   19.7308   19.7693   19.7700   22.0150   22.0170   
      2    0      90    4.67e-03   1.0162   4.3494   4.3499   4.4193   6.6941   6.6989   6.8428   6.8440   8.0003   8.5170   8.5191   8.7941   9.2438   9.3117   9.5880   9.5894   11.1701   11.9249   11.9265   12.3485   12.3496   15.0082   15.0097   15.2072   16.3399   17.4050   18.5453   18.5467   20.1788   20.1923   
      3    0      120   1.06e-02   0.9982   4.3011   4.3015   4.3953   6.6786   6.6834   6.7649   6.7660   7.9775   8.4919   8.4940   8.6841   9.2154   9.2805   9.5579   9.5593   11.1236   11.8705   11.8722   12.2940   12.2951   13.7007   13.9037   13.9176   14.1026   14.1278   14.9344   14.9355   15.0143   15.1355   
      4    8      60    2.01e-03   0.9963*  4.2895   4.2899   4.3915*  6.6767*  6.6815*  6.7542   6.7553   7.9745*  8.4888*  8.4909*  8.6206   9.2120*  9.2764   9.5540   9.5553   10.2794   10.2804   10.4022   11.1189   11.8622   11.8638   12.2722   12.2732   12.5212   12.9390   12.9450   14.8538   14.8545   15.1019   
      5    13     82    9.74e-04   0.9963*  4.2932*  4.2937*  4.3917*  6.6767*  6.6815*  6.7543   6.7555   7.9745*  8.4888*  8.4909*  8.6279   9.2120*  9.2765*  9.5545*  9.5558*  9.8503   9.8512   9.9327   11.1164   11.8620   11.8636   12.1249   12.2606   12.2617   12.6623   12.6636   13.5209   13.5220   14.9415   
      6    18     99    2.66e-03   0.9963*  4.2923*  4.2928*  4.3918*  6.6767*  6.6814*  6.7525*  6.7537*  7.9745*  8.4889*  8.4910*  8.6126   9.2120*  9.2758*  9.5541*  9.5555*  9.8354   9.8413   9.8420   11.1146*  11.8622*  11.8625*  12.0287   12.2510   12.2520   12.6170   12.6172   13.3214   13.3233   14.0888   
      7    21     111   2.72e-04   0.9963*  4.2924*  4.2929*  4.3918*  6.6767*  6.6815*  6.7521*  6.7533*  7.9745*  8.4889*  8.4910*  8.6123*  9.2120*  9.2759*  9.5535*  9.5549*  9.7844   9.7880   9.8208   11.1146*  11.8617*  11.8620*  11.9825   12.2170   12.2519*  12.2535*  12.5968   12.5974   13.2769   13.2934   
      8    21     120   1.94e-04   0.9963*  4.2923*  4.2929*  4.3917*  6.6768*  6.6816*  6.7520*  6.7533*  7.9745*  8.4889*  8.4910*  8.6124*  9.2120*  9.2759*  9.5535*  9.5549*  9.7736   9.7830   9.8173   11.1150*  11.8612*  11.8619*  11.9725   12.0810   12.2503*  12.2514*  12.5962   12.5970   13.2433   13.2792   
      9    23     39    1.24e-04   0.9963*  4.2923*  4.2929*  4.3918*  6.6768*  6.6816*  6.7522*  6.7533*  7.9745*  8.4888*  8.4910*  8.6124*  9.2120*  9.2759*  9.5535*  9.5550*  9.7722   9.7785   9.8163   11.1148*  11.8612*  11.8619*  11.9720   12.0552   12.2512*  12.2521*  12.5945*  12.5953*  13.1966   13.2754   
      10   23     46    9.59e-05   0.9963*  4.2923*  4.2929*  4.3918*  6.6768*  6.6816*  6.7520*  6.7531*  7.9745*  8.4888*  8.4910*  8.6124*  9.2120*  9.2759*  9.5535*  9.5549*  9.7711   9.7767   9.8150   11.1148*  11.8611*  11.8619*  11.9717   12.0534   12.2512*  12.2522*  12.5945*  12.5953*  13.1498   13.2674   
      11   25     53    7.67e-05   0.9963*  4.2923*  4.2929*  4.3918*  6.6768*  6.6816*  6.7519*  6.7531*  7.9745*  8.4888*  8.4909*  8.6123*  9.2120*  9.2759*  9.5535*  9.5549*  9.7696*  9.7719   9.8143*  11.1148*  11.8610*  11.8618*  11.9713   12.0395   12.2511*  12.2521*  12.5946*  12.5954*  13.1049   13.2603   
      12   27     58    2.59e-04   0.9963*  4.2923*  4.2929*  4.3918*  6.6768*  6.6816*  6.7519*  6.7531*  7.9745*  8.4888*  8.4909*  8.6123*  9.2120*  9.2759*  9.5535*  9.5549*  9.7696*  9.7705*  9.8143*  11.1149*  11.8609*  11.8617*  11.9707*  12.0370   12.2513*  12.2522*  12.5945*  12.5951*  12.8855   13.2569   
      13   26     61    4.24e-04   0.9963*  4.2923*  4.2929*  4.3918*  6.6768*  6.6816*  6.7519*  6.7531*  7.9745*  8.4888*  8.4909*  8.6123*  9.2120*  9.2759*  9.5535*  9.5549*  9.7696*  9.7704*  9.8143*  11.1149*  11.8609*  11.8615*  11.9706*  12.0290   12.2512*  12.2523*  12.5942   12.5951*  12.6894   13.2555   
      14   28     65    9.41e-05   0.9962*  4.2923*  4.2929*  4.3918*  6.6768*  6.6816*  6.7519*  6.7531*  7.9745*  8.4888*  8.4909*  8.6123*  9.2120*  9.2759*  9.5535*  9.5549*  9.7696*  9.7704*  9.8143*  11.1149*  11.8607*  11.8614*  11.9706*  12.0239   12.1540   12.2513*  12.2524*  12.5945*  12.5953*  13.2550*  
      15   28     67    3.24e-05   0.9962*  4.2923*  4.2929*  4.3918*  6.6768*  6.6816*  6.7519*  6.7531*  7.9745*  8.4888*  8.4909*  8.6123*  9.2120*  9.2759*  9.5535*  9.5549*  9.7696*  9.7704*  9.8143*  11.1149*  11.8607*  11.8614*  11.9706*  12.0208   12.0593   12.2512*  12.2524*  12.5946*  12.5953*  13.2550*  
      16   27     69    1.61e-04   0.9962*  4.2923*  4.2929*  4.3918*  6.6768*  6.6816*  6.7519*  6.7531*  7.9745*  8.4888*  8.4909*  8.6123*  9.2120*  9.2759*  9.5535*  9.5549*  9.7696*  9.7704*  9.8143*  11.1149*  11.8607*  11.8614*  11.9706*  12.0189   12.0321   12.2512*  12.2524*  12.5946*  12.5953*  13.0994   
Found complex roots...
      17   27     72    1.01e-04   0.9962*  4.2923*  4.2929*  4.3918*  6.6768*  6.6816*  6.7519*  6.7531*  7.9745*  8.4888*  8.4909*  8.6123*  9.2120*  9.2759*  9.5535*  9.5549*  9.7695*  9.7703*  9.8143*  11.1149*  11.8606*  11.8613*  11.9706*  12.0177   12.0221   12.2512*  12.2524*  12.5946*  12.5953*  12.8510   
      18   27     75    6.90e-05   0.9962*  4.2923*  4.2929*  4.3918*  6.6768*  6.6816*  6.7519*  6.7531*  7.9745*  8.4888*  8.4909*  8.6123*  9.2120*  9.2759*  9.5535*  9.5549*  9.7695*  9.7703*  9.8143*  11.1149*  11.8604*  11.8613*  11.9706*  12.0168   12.0181   12.2512*  12.2525*  12.5946*  12.5953*  12.6957   
      19   27     78    1.46e-04   0.9962*  4.2923*  4.2929*  4.3918*  6.6768*  6.6816*  6.7519*  6.7531*  7.9745*  8.4888*  8.4909*  8.6123*  9.2120*  9.2759*  9.5535*  9.5549*  9.7695*  9.7703*  9.8143*  11.1149*  11.8603*  11.8614*  11.9706*  12.0141   12.0161   12.2512*  12.2526*  12.5211   12.5946*  12.5953*  
      20   26     81    9.79e-04   0.9962*  4.2923*  4.2929*  4.3918*  6.6768*  6.6816*  6.7519*  6.7531*  7.9745*  8.4888*  8.4909*  8.6123*  9.2120*  9.2759*  9.5535*  9.5549*  9.7695*  9.7703*  9.8143*  11.1149*  11.5239   11.8603*  11.8614*  11.9706*  12.0145   12.0279   12.2512*  12.2525*  12.4207   12.5947*  
      21   26     85    5.53e-04   0.9961*  4.2923*  4.2929*  4.3918*  6.6768*  6.6816*  6.7519*  6.7531*  7.9745*  8.4888*  8.4909*  8.6123*  9.2120*  9.2759*  9.5535*  9.5549*  9.7695*  9.7703*  9.8143*  10.6945   11.1149*  11.7660   11.8603*  11.8614*  11.9706*  12.0197   12.0205   12.2512*  12.2525*  12.5947*  
      22   27     89    2.76e-04   0.9961*  4.2924*  4.2929*  4.3918*  6.6768*  6.6816*  6.7519*  6.7531*  7.9745*  8.4888*  8.4909*  8.6123*  9.2120*  9.2759*  9.5535*  9.5549*  9.7695*  9.7703*  9.8143*  10.3291   11.1149*  11.3158   11.8601*  11.8614*  11.9706*  12.0171*  12.0188   12.2511*  12.2524*  12.5947*  
      23   25     92    4.09e-04   0.9960*  4.2924*  4.2929*  4.3918*  6.6768*  6.6816*  6.7519*  6.7531*  7.9745*  8.4888*  8.4909*  8.6123*  9.2120*  9.2759*  9.5535*  9.5549*  9.7695*  9.7703*  9.8143*  10.0762   11.1149*  11.1616   11.8601*  11.8614*  11.9706*  12.0152   12.0171   12.2511*  12.2524*  12.5395   
      24   23     97    8.21e-04   0.9960*  4.2924*  4.2929*  4.3918*  6.6768*  6.6816*  6.7519*  6.7531*  7.9745*  8.4888*  8.4909*  8.6123*  9.2120*  9.2759*  9.5535*  9.5549*  9.7695*  9.7703*  9.8143*  9.8586   11.0972   11.1149*  11.6426   11.8597   11.8614*  11.9106   11.9706*  12.0169   12.0262   12.2511*  
      25   24     104   3.78e-04   0.9960*  4.2924*  4.2928*  4.3918*  6.6768*  6.6816*  6.7519*  6.7531*  7.9745*  8.4888*  8.4909*  8.6122*  9.2120*  9.2759*  9.5535*  9.5549*  9.7062   9.7695*  9.7703*  9.8143*  11.0101   11.0806   11.1149*  11.4871   11.8592*  11.8614*  11.9706*  12.0163   12.0208   12.2511*  
      26   23     110   3.77e-04   0.9959*  4.2924*  4.2928*  4.3918*  6.6768*  6.6816*  6.7519*  6.7531*  7.9746*  8.4888*  8.4909*  8.6122*  9.2120*  9.2759*  9.5535*  9.5549*  9.6377   9.7695*  9.7703*  9.8143*  10.8665   10.8932   11.1149*  11.3570   11.7098   11.8591*  11.8614*  11.9706*  12.0174   12.0201   
      27   25     117   1.10e-04   0.9959*  4.2924*  4.2928*  4.3918*  6.6768*  6.6816*  6.7519*  6.7531*  7.9747*  8.4888*  8.4909*  8.6122*  9.2120*  9.2759*  9.5535*  9.5549*  9.6191   9.7695*  9.7703*  9.8142*  10.8042   10.8183   11.1149*  11.3100   11.4854   11.8591*  11.8614*  11.9705*  12.0170*  12.0196*  
      28   25     120   3.94e-05   0.9960*  4.2924*  4.2928*  4.3918*  6.6768*  6.6816*  6.7519*  6.7531*  7.9747*  8.4888*  8.4909*  8.6122*  9.2120*  9.2759*  9.5535*  9.5549*  9.6146   9.7695*  9.7703*  9.8142*  10.7881   10.7919   11.1149*  11.2940   11.4309   11.8591*  11.8614*  11.9705*  12.0168*  12.0194*  
      29   26     35    1.34e-05   0.9959*  4.2924*  4.2928*  4.3918*  6.6768*  6.6816*  6.7519*  6.7531*  7.9747*  8.4888*  8.4909*  8.6122*  9.2120*  9.2759*  9.5535*  9.5549*  9.6138*  9.7695*  9.7703*  9.8142*  10.7848   10.7863   11.1149*  11.2835   11.4180   11.8591*  11.8614*  11.9705*  12.0168*  12.0194*  
      30   26     39    1.07e-05   0.9959*  4.2923*  4.2928*  4.3918*  6.6768*  6.6816*  6.7519*  6.7531*  7.9748*  8.4889*  8.4909*  8.6122*  9.2120*  9.2759*  9.5535*  9.5549*  9.6136*  9.7695*  9.7703*  9.8142*  10.7832   10.7840   11.1149*  11.2802   11.4124   11.8591*  11.8614*  11.9705*  12.0168*  12.0194*  
      31   26     43    9.34e-06   0.9959*  4.2923*  4.2928*  4.3918*  6.6768*  6.6816*  6.7519*  6.7531*  7.9748*  8.4889*  8.4909*  8.6121*  9.2120*  9.2759*  9.5535*  9.5549*  9.6136*  9.7695*  9.7703*  9.8142*  10.7829   10.7838   11.1150*  11.2773   11.4113   11.8591*  11.8614*  11.9705*  12.0168*  12.0194*  
      32   26     47    6.88e-06   0.9959*  4.2923*  4.2928*  4.3918*  6.6768*  6.6815*  6.7519*  6.7531*  7.9748*  8.4890*  8.4910*  8.6123*  9.2120*  9.2759*  9.5535*  9.5549*  9.6135*  9.7695*  9.7703*  9.8142*  10.7825   10.7833   11.1149*  11.2753   11.4098   11.8591*  11.8614*  11.9705*  12.0168*  12.0194*  
      33   27     51    5.43e-06   0.9959*  4.2923*  4.2928*  4.3918*  6.6767*  6.6815*  6.7519*  6.7531*  7.9748*  8.4890*  8.4910*  8.6122*  9.2120*  9.2759*  9.5535*  9.5549*  9.6135*  9.7695*  9.7703*  9.8142*  10.7823*  10.7830   11.1149*  11.2738   11.4086   11.8591*  11.8614*  11.9705*  12.0168*  12.0194*  
      34   28     54    4.31e-06   0.9959*  4.2923*  4.2928*  4.3918*  6.6767*  6.6815*  6.7519*  6.7531*  7.9748*  8.4890*  8.4910*  8.6122*  9.2120*  9.2759*  9.5535*  9.5549*  9.6135*  9.7695*  9.7703*  9.8142*  10.7821*  10.7828*  11.1149*  11.2724   11.4079   11.8591*  11.8614*  11.9705*  12.0168*  12.0193*  
      35   29     56    3.79e-06   0.9959*  4.2923*  4.2928*  4.3918*  6.6767*  6.6815*  6.7519*  6.7530*  7.9747*  8.4890*  8.4910*  8.6122*  9.2120*  9.2759*  9.5535*  9.5549*  9.6135*  9.7695*  9.7703*  9.8142*  10.7819*  10.7827*  11.1149*  11.2712   11.4075*  11.8591*  11.8614*  11.9705*  12.0168*  12.0193*  
      36   28     57    1.95e-04   0.9959*  4.2923*  4.2928*  4.3918*  6.6767*  6.6815*  6.7519*  6.7530*  7.9747*  8.4890*  8.4910*  8.6122*  9.2121*  9.2759*  9.5535*  9.5549*  9.6135*  9.7695*  9.7703*  9.8142*  10.7819*  10.7827*  11.1150*  11.2704   11.4074*  11.8590*  11.8614*  11.8994   11.9705*  12.0168*  
      37   28     59    1.24e-04   0.9959*  4.2923*  4.2928*  4.3918*  6.6767*  6.6815*  6.7519*  6.7530*  7.9747*  8.4890*  8.4910*  8.6122*  9.2122*  9.2759*  9.5535*  9.5549*  9.6135*  9.7695*  9.7703*  9.8142*  10.7817*  10.7824*  11.1150*  11.2697   11.4074*  11.6323   11.8591*  11.8614*  11.9706*  12.0168*  
      38   28     61    7.18e-05   0.9959*  4.2923*  4.2928*  4.3918*  6.6767*  6.6815*  6.7519*  6.7530*  7.9747*  8.4890*  8.4911*  8.6122*  9.2123*  9.2759*  9.5536*  9.5549*  9.6135*  9.7695*  9.7703*  9.8142*  10.7817*  10.7824*  11.1149*  11.2692   11.4073*  11.5294   11.8591*  11.8614*  11.9706*  12.0168*  
      39   29     63    3.16e-05   0.9959*  4.2923*  4.2928*  4.3918*  6.6767*  6.6815*  6.7519*  6.7530*  7.9748*  8.4890*  8.4911*  8.6122*  9.2124*  9.2759*  9.5536*  9.5549*  9.6135*  9.7695*  9.7703*  9.8142*  10.7816*  10.7823*  11.1150*  11.2686*  11.4073*  11.4580   11.8591*  11.8614*  11.9706*  12.0168*  
      40   29     64    1.24e-05   0.9959*  4.2923*  4.2928*  4.3918*  6.6767*  6.6815*  6.7519*  6.7530*  7.9748*  8.4890*  8.4911*  8.6122*  9.2124*  9.2759*  9.5536*  9.5549*  9.6135*  9.7695*  9.7703*  9.8142*  10.7816*  10.7823*  11.1150*  11.2682*  11.4073*  11.4274   11.8591*  11.8614*  11.9706*  12.0168*  
      41   29     65    6.16e-06   0.9959*  4.2923*  4.2928*  4.3918*  6.6767*  6.6815*  6.7519*  6.7530*  7.9748*  8.4890*  8.4911*  8.6122*  9.2124*  9.2759*  9.5536*  9.5549*  9.6135*  9.7695*  9.7703*  9.8142*  10.7816*  10.7823*  11.1150*  11.2680*  11.4073*  11.4167   11.8591*  11.8614*  11.9706*  12.0168*  
      42   29     66    4.08e-06   0.9959*  4.2923*  4.2928*  4.3918*  6.6767*  6.6815*  6.7519*  6.7530*  7.9748*  8.4890*  8.4911*  8.6122*  9.2124*  9.2759*  9.5536*  9.5549*  9.6135*  9.7695*  9.7703*  9.8142*  10.7816*  10.7823*  11.1149*  11.2679*  11.4073*  11.4129   11.8591*  11.8614*  11.9706*  12.0168*  
      43   29     67    3.43e-06   0.9959*  4.2923*  4.2928*  4.3918*  6.6767*  6.6815*  6.7519*  6.7530*  7.9748*  8.4890*  8.4911*  8.6122*  9.2124*  9.2759*  9.5536*  9.5549*  9.6135*  9.7695*  9.7703*  9.8142*  10.7816*  10.7823*  11.1149*  11.2679*  11.4073*  11.4112   11.8591*  11.8614*  11.9706*  12.0168*  
      44   29     68    3.30e-06   0.9959*  4.2923*  4.2928*  4.3918*  6.6767*  6.6815*  6.7519*  6.7530*  7.9748*  8.4890*  8.4911*  8.6122*  9.2124*  9.2759*  9.5536*  9.5549*  9.6135*  9.7695*  9.7703*  9.8142*  10.7816*  10.7823*  11.1149*  11.2679*  11.4073*  11.4101   11.8592*  11.8614*  11.9706*  12.0168*  
      45   29     69    3.18e-06   0.9959*  4.2923*  4.2928*  4.3918*  6.6767*  6.6815*  6.7519*  6.7530*  7.9748*  8.4890*  8.4911*  8.6122*  9.2124*  9.2759*  9.5536*  9.5549*  9.6135*  9.7695*  9.7703*  9.8142*  10.7816*  10.7823*  11.1149*  11.2679*  11.4073*  11.4093   11.8592*  11.8614*  11.9706*  12.0168*  
      46   30     70    3.09e-06   0.9959*  4.2923*  4.2928*  4.3918*  6.6767*  6.6815*  6.7519*  6.7530*  7.9748*  8.4890*  8.4911*  8.6122*  9.2124*  9.2759*  9.5536*  9.5549*  9.6135*  9.7695*  9.7703*  9.8142*  10.7816*  10.7823*  11.1149*  11.2679*  11.4073*  11.4086*  11.8591*  11.8614*  11.9706*  12.0168*  

     Davidson procedure converged

 EOMIP transition 1/A
 Total energy = -499.23842353 a.u.  Excitation energy = 0.9959 eV.
 R1^2 = 0.9353  R2^2 = 0.0647  Res^2 = 3.66e-06
 Conv-d = yes

 Amplitude    Transitions between orbitals
  0.9671       44 (A) A                  ->    infty        
  0.0002       42 (A) A                  ->    infty        

              Summary of significant orbitals:

               Number  Type             Irrep      Energy
               42      Occ  Alpha      42 (A)     -0.1770
               44      Occ  Alpha      44 (A)     -0.0291


 EOMIP transition 2/A
 Total energy = -499.11728303 a.u.  Excitation energy = 4.2923 eV.
 R1^2 = 0.9091  R2^2 = 0.0909  Res^2 = 4.42e-07
 Conv-d = yes

 Amplitude    Transitions between orbitals
  0.9311       42 (A) A                  ->    infty        
 -0.2047       41 (A) A                  ->    infty        
 -0.0101       39 (A) A                  ->    infty        
  0.0094       40 (A) A                  ->    infty        

              Summary of significant orbitals:

               Number  Type             Irrep      Energy
               39      Occ  Alpha      39 (A)     -0.2960
               40      Occ  Alpha      40 (A)     -0.2960
               41      Occ  Alpha      41 (A)     -0.1770
               42      Occ  Alpha      42 (A)     -0.1770


 EOMIP transition 3/A
 Total energy = -499.11726564 a.u.  Excitation energy = 4.2928 eV.
 R1^2 = 0.9091  R2^2 = 0.0909  Res^2 = 4.98e-07
 Conv-d = yes

 Amplitude    Transitions between orbitals
  0.9422       41 (A) A                  ->    infty        
  0.1453       42 (A) A                  ->    infty        
  0.0098       39 (A) A                  ->    infty        
  0.0098       40 (A) A                  ->    infty        

              Summary of significant orbitals:

               Number  Type             Irrep      Energy
               39      Occ  Alpha      39 (A)     -0.2960
               40      Occ  Alpha      40 (A)     -0.2960
               41      Occ  Alpha      41 (A)     -0.1770
               42      Occ  Alpha      42 (A)     -0.1770


 EOMIP transition 4/A
 Total energy = -499.11362818 a.u.  Excitation energy = 4.3918 eV.
 R1^2 = 0.9297  R2^2 = 0.0703  Res^2 = 3.46e-06
 Conv-d = yes

 Amplitude    Transitions between orbitals
 -0.9635       43 (A) A                  ->    infty        
 -0.0358       33 (A) A                  ->    infty        
 -0.0048       41 (A) A                  ->    infty        
 -0.0034       42 (A) A                  ->    infty        

              Summary of significant orbitals:

               Number  Type             Irrep      Energy
               33      Occ  Alpha      33 (A)     -0.3848
               41      Occ  Alpha      41 (A)     -0.1770
               42      Occ  Alpha      42 (A)     -0.1770
               43      Occ  Alpha      43 (A)     -0.1658


 EOMIP transition 5/A
 Total energy = -499.02965926 a.u.  Excitation energy = 6.6767 eV.
 R1^2 = 0.9245  R2^2 = 0.0755  Res^2 = 2.96e-06
 Conv-d = yes

 Amplitude    Transitions between orbitals
  0.9606       38 (A) A                  ->    infty        
  0.0373       25 (A) A                  ->    infty        
  0.0103       34 (A) A                  ->    infty        
 -0.0094       37 (A) A                  ->    infty        

              Summary of significant orbitals:

               Number  Type             Irrep      Energy
               25      Occ  Alpha      25 (A)     -0.5431
               34      Occ  Alpha      34 (A)     -0.3760
               37      Occ  Alpha      37 (A)     -0.3040
               38      Occ  Alpha      38 (A)     -0.3038


 EOMIP transition 6/A
 Total energy = -499.02948276 a.u.  Excitation energy = 6.6815 eV.
 R1^2 = 0.9245  R2^2 = 0.0755  Res^2 = 2.99e-06
 Conv-d = yes

 Amplitude    Transitions between orbitals
 -0.9604       37 (A) A                  ->    infty        
 -0.0373       24 (A) A                  ->    infty        
  0.0178       39 (A) A                  ->    infty        
  0.0103       35 (A) A                  ->    infty        

              Summary of significant orbitals:

               Number  Type             Irrep      Energy
               24      Occ  Alpha      24 (A)     -0.5432
               35      Occ  Alpha      35 (A)     -0.3759
               37      Occ  Alpha      37 (A)     -0.3040
               39      Occ  Alpha      39 (A)     -0.2960


 EOMIP transition 7/A
 Total energy = -499.02689666 a.u.  Excitation energy = 6.7519 eV.
 R1^2 = 0.8831  R2^2 = 0.1169  Res^2 = 1.10e-06
 Conv-d = yes

 Amplitude    Transitions between orbitals
  0.9396       40 (A) A                  ->    infty        
 -0.0135       42 (A) A                  ->    infty        
 -0.0096       41 (A) A                  ->    infty        
  0.0041       39 (A) A                  ->    infty        

              Summary of significant orbitals:

               Number  Type             Irrep      Energy
               39      Occ  Alpha      39 (A)     -0.2960
               40      Occ  Alpha      40 (A)     -0.2960
               41      Occ  Alpha      41 (A)     -0.1770
               42      Occ  Alpha      42 (A)     -0.1770


 EOMIP transition 8/A
 Total energy = -499.02685446 a.u.  Excitation energy = 6.7530 eV.
 R1^2 = 0.8832  R2^2 = 0.1168  Res^2 = 1.31e-06
 Conv-d = yes

 Amplitude    Transitions between orbitals
 -0.9394       39 (A) A                  ->    infty        
 -0.0178       37 (A) A                  ->    infty        
  0.0130       41 (A) A                  ->    infty        
  0.0102       40 (A) A                  ->    infty        

              Summary of significant orbitals:

               Number  Type             Irrep      Energy
               37      Occ  Alpha      37 (A)     -0.3040
               39      Occ  Alpha      39 (A)     -0.2960
               40      Occ  Alpha      40 (A)     -0.2960
               41      Occ  Alpha      41 (A)     -0.1770


 EOMIP transition 9/A
 Total energy = -498.98195647 a.u.  Excitation energy = 7.9748 eV.
 R1^2 = 0.9158  R2^2 = 0.0842  Res^2 = 5.40e-06
 Conv-d = yes

 Amplitude    Transitions between orbitals
 -0.9518       36 (A) A                  ->    infty        
 -0.0978       31 (A) A                  ->    infty        
  0.0163       20 (A) A                  ->    infty        
  0.0007       34 (A) A                  ->    infty        

              Summary of significant orbitals:

               Number  Type             Irrep      Energy
               20      Occ  Alpha      20 (A)     -0.7395
               31      Occ  Alpha      31 (A)     -0.4145
               34      Occ  Alpha      34 (A)     -0.3760
               36      Occ  Alpha      36 (A)     -0.3574


 EOMIP transition 10/A
 Total energy = -498.96305991 a.u.  Excitation energy = 8.4890 eV.
 R1^2 = 0.9159  R2^2 = 0.0841  Res^2 = 6.32e-06
 Conv-d = yes

 Amplitude    Transitions between orbitals
  0.9549       35 (A) A                  ->    infty        
  0.0458       29 (A) A                  ->    infty        
  0.0373       22 (A) A                  ->    infty        
 -0.0139       24 (A) A                  ->    infty        

              Summary of significant orbitals:

               Number  Type             Irrep      Energy
               22      Occ  Alpha      22 (A)     -0.6663
               24      Occ  Alpha      24 (A)     -0.5432
               29      Occ  Alpha      29 (A)     -0.4262
               35      Occ  Alpha      35 (A)     -0.3759


 EOMIP transition 11/A
 Total energy = -498.96298270 a.u.  Excitation energy = 8.4911 eV.
 R1^2 = 0.9159  R2^2 = 0.0841  Res^2 = 6.40e-06
 Conv-d = yes

 Amplitude    Transitions between orbitals
 -0.9549       34 (A) A                  ->    infty        
  0.0457       30 (A) A                  ->    infty        
  0.0371       23 (A) A                  ->    infty        
 -0.0140       25 (A) A                  ->    infty        

              Summary of significant orbitals:

               Number  Type             Irrep      Energy
               23      Occ  Alpha      23 (A)     -0.6663
               25      Occ  Alpha      25 (A)     -0.5431
               30      Occ  Alpha      30 (A)     -0.4262
               34      Occ  Alpha      34 (A)     -0.3760


 EOMIP transition 12/A
 Total energy = -498.95853107 a.u.  Excitation energy = 8.6122 eV.
 R1^2 = 0.7985  R2^2 = 0.2015  Res^2 = 5.32e-06
 Conv-d = yes

 Amplitude    Transitions between orbitals
 -0.8909       33 (A) A                  ->    infty        
  0.0697       43 (A) A                  ->    infty        
 -0.0018       34 (A) A                  ->    infty        
 -0.0007       35 (A) A                  ->    infty        

              Summary of significant orbitals:

               Number  Type             Irrep      Energy
               33      Occ  Alpha      33 (A)     -0.3848
               34      Occ  Alpha      34 (A)     -0.3760
               35      Occ  Alpha      35 (A)     -0.3759
               43      Occ  Alpha      43 (A)     -0.1658


 EOMIP transition 13/A
 Total energy = -498.93647560 a.u.  Excitation energy = 9.2124 eV.
 R1^2 = 0.9105  R2^2 = 0.0895  Res^2 = 8.63e-06
 Conv-d = yes

 Amplitude    Transitions between orbitals
 -0.9484       31 (A) A                  ->    infty        
  0.0993       36 (A) A                  ->    infty        
 -0.0333       20 (A) A                  ->    infty        
  0.0060       32 (A) A                  ->    infty        

              Summary of significant orbitals:

               Number  Type             Irrep      Energy
               20      Occ  Alpha      20 (A)     -0.7395
               31      Occ  Alpha      31 (A)     -0.4145
               32      Occ  Alpha      32 (A)     -0.4088
               36      Occ  Alpha      36 (A)     -0.3574


 EOMIP transition 14/A
 Total energy = -498.93414019 a.u.  Excitation energy = 9.2759 eV.
 R1^2 = 0.9080  R2^2 = 0.0920  Res^2 = 1.12e-06
 Conv-d = yes

 Amplitude    Transitions between orbitals
  0.9514       32 (A) A                  ->    infty        
 -0.0437       21 (A) A                  ->    infty        
  0.0285       28 (A) A                  ->    infty        
  0.0058       31 (A) A                  ->    infty        

              Summary of significant orbitals:

               Number  Type             Irrep      Energy
               21      Occ  Alpha      21 (A)     -0.6782
               28      Occ  Alpha      28 (A)     -0.4832
               31      Occ  Alpha      31 (A)     -0.4145
               32      Occ  Alpha      32 (A)     -0.4088


 EOMIP transition 15/A
 Total energy = -498.92393651 a.u.  Excitation energy = 9.5536 eV.
 R1^2 = 0.9080  R2^2 = 0.0920  Res^2 = 1.09e-06
 Conv-d = yes

 Amplitude    Transitions between orbitals
 -0.9490       30 (A) A                  ->    infty        
  0.0696       26 (A) A                  ->    infty        
 -0.0429       34 (A) A                  ->    infty        
 -0.0211       29 (A) A                  ->    infty        

              Summary of significant orbitals:

               Number  Type             Irrep      Energy
               26      Occ  Alpha      26 (A)     -0.5221
               29      Occ  Alpha      29 (A)     -0.4262
               30      Occ  Alpha      30 (A)     -0.4262
               34      Occ  Alpha      34 (A)     -0.3760


 EOMIP transition 16/A
 Total energy = -498.92388628 a.u.  Excitation energy = 9.5549 eV.
 R1^2 = 0.9079  R2^2 = 0.0921  Res^2 = 9.34e-07
 Conv-d = yes

 Amplitude    Transitions between orbitals
 -0.9489       29 (A) A                  ->    infty        
  0.0698       27 (A) A                  ->    infty        
  0.0429       35 (A) A                  ->    infty        
  0.0226       30 (A) A                  ->    infty        

              Summary of significant orbitals:

               Number  Type             Irrep      Energy
               27      Occ  Alpha      27 (A)     -0.5220
               29      Occ  Alpha      29 (A)     -0.4262
               30      Occ  Alpha      30 (A)     -0.4262
               35      Occ  Alpha      35 (A)     -0.3759


 EOMIP transition 17/A
 Total energy = -498.92173520 a.u.  Excitation energy = 9.6135 eV.
 R1^2 = 0.0000  R2^2 = 1.0000  Res^2 = 9.63e-07
 Conv-d = yes

 Amplitude    Transitions between orbitals
  0.3085       43 (A) A      44 (A) A    ->    45 (A) A     
 -0.3085       44 (A) A      43 (A) A    ->    45 (A) A     
 -0.3082       43 (A) A      44 (A) B    ->    45 (A) B     
  0.3082       44 (A) B      43 (A) A    ->    45 (A) B     
  0.3079       44 (A) A      43 (A) B    ->    45 (A) B     
 -0.3079       43 (A) B      44 (A) A    ->    45 (A) B     
 -0.2468       42 (A) A      44 (A) B    ->    46 (A) B     
  0.2468       44 (A) B      42 (A) A    ->    46 (A) B     
  0.2466       42 (A) A      44 (A) A    ->    46 (A) A     
 -0.2466       44 (A) A      42 (A) A    ->    46 (A) A     
  0.2463       44 (A) A      42 (A) B    ->    46 (A) B     
 -0.2463       42 (A) B      44 (A) A    ->    46 (A) B     
 -0.2456       41 (A) A      44 (A) A    ->    47 (A) A     
  0.2456       44 (A) A      41 (A) A    ->    47 (A) A     
  0.2454       41 (A) A      44 (A) B    ->    47 (A) B     
 -0.2454       44 (A) B      41 (A) A    ->    47 (A) B     
 -0.2451       44 (A) A      41 (A) B    ->    47 (A) B     
  0.2451       41 (A) B      44 (A) A    ->    47 (A) B     
 -0.1805       41 (A) A      44 (A) A    ->    46 (A) A     
  0.1805       44 (A) A      41 (A) A    ->    46 (A) A     
 -0.1804       42 (A) A      44 (A) A    ->    47 (A) A     
  0.1804       44 (A) A      42 (A) A    ->    47 (A) A     
  0.1804       42 (A) A      44 (A) B    ->    47 (A) B     
 -0.1804       44 (A) B      42 (A) A    ->    47 (A) B     
 -0.1802       44 (A) A      42 (A) B    ->    47 (A) B     
  0.1802       42 (A) B      44 (A) A    ->    47 (A) B     
  0.1802       41 (A) A      44 (A) B    ->    46 (A) B     
 -0.1802       44 (A) B      41 (A) A    ->    46 (A) B     
 -0.1800       44 (A) A      41 (A) B    ->    46 (A) B     
  0.1800       41 (A) B      44 (A) A    ->    46 (A) B     
  0.1262       39 (A) A      44 (A) A    ->    58 (A) A     
 -0.1262       44 (A) A      39 (A) A    ->    58 (A) A     
  0.1262       40 (A) A      44 (A) A    ->    57 (A) A     
 -0.1262       44 (A) A      40 (A) A    ->    57 (A) A     
  0.1262       44 (A) A      39 (A) B    ->    58 (A) B     
 -0.1262       39 (A) B      44 (A) A    ->    58 (A) B     
 -0.1261       39 (A) A      44 (A) B    ->    58 (A) B     
  0.1261       44 (A) B      39 (A) A    ->    58 (A) B     
  0.1261       44 (A) A      40 (A) B    ->    57 (A) B     
 -0.1261       40 (A) B      44 (A) A    ->    57 (A) B     
 -0.1260       40 (A) A      44 (A) B    ->    57 (A) B     
  0.1260       44 (A) B      40 (A) A    ->    57 (A) B     

              Summary of significant orbitals:

               Number  Type             Irrep      Energy
               39      Occ  Alpha      39 (A)     -0.2960
               40      Occ  Alpha      40 (A)     -0.2960
               41      Occ  Alpha      41 (A)     -0.1770
               42      Occ  Alpha      42 (A)     -0.1770
               43      Occ  Alpha      43 (A)     -0.1658
               44      Occ  Alpha      44 (A)     -0.0291
               39      Occ  Beta       39 (A)     -0.2960
               40      Occ  Beta       40 (A)     -0.2960
               41      Occ  Beta       41 (A)     -0.1770
               42      Occ  Beta       42 (A)     -0.1770
               43      Occ  Beta       43 (A)     -0.1658
               44      Occ  Beta       44 (A)     -0.0291
               45      Vir  Alpha      45 (A)      0.2869
               46      Vir  Alpha      46 (A)      0.2878
               47      Vir  Alpha      47 (A)      0.2878
               57      Vir  Alpha      57 (A)      0.4397
               58      Vir  Alpha      58 (A)      0.4397
               45      Vir  Beta       45 (A)      0.2869
               46      Vir  Beta       46 (A)      0.2878
               47      Vir  Beta       47 (A)      0.2878
               57      Vir  Beta       57 (A)      0.4397
               58      Vir  Beta       58 (A)      0.4397


 EOMIP transition 18/A
 Total energy = -498.91600114 a.u.  Excitation energy = 9.7695 eV.
 R1^2 = 0.0327  R2^2 = 0.9673  Res^2 = 6.37e-06
 Conv-d = yes

 Amplitude    Transitions between orbitals
  0.8810       44 (A) A      44 (A) B    ->    46 (A) B     
 -0.8810       44 (A) B      44 (A) A    ->    46 (A) B     
  0.1763       44 (A) A      44 (A) B    ->    47 (A) B     
 -0.1763       44 (A) B      44 (A) A    ->    47 (A) B     
 -0.1187       44 (A) A      43 (A) B    ->    47 (A) B     
  0.1187       43 (A) B      44 (A) A    ->    47 (A) B     
 -0.1179       42 (A) A      42 (A) B    ->    46 (A) B     
  0.1179       42 (A) B      42 (A) A    ->    46 (A) B     
 -0.1139       41 (A) A      41 (A) B    ->    46 (A) B     
  0.1139       41 (A) B      41 (A) A    ->    46 (A) B     
  0.1085       41 (A) A      44 (A) B    ->    57 (A) B     
 -0.1085       44 (A) B      41 (A) A    ->    57 (A) B     
  0.1071       42 (A) A      44 (A) B    ->    58 (A) B     
 -0.1071       44 (A) B      42 (A) A    ->    58 (A) B     

              Summary of significant orbitals:

               Number  Type             Irrep      Energy
               41      Occ  Alpha      41 (A)     -0.1770
               42      Occ  Alpha      42 (A)     -0.1770
               44      Occ  Alpha      44 (A)     -0.0291
               41      Occ  Beta       41 (A)     -0.1770
               42      Occ  Beta       42 (A)     -0.1770
               43      Occ  Beta       43 (A)     -0.1658
               44      Occ  Beta       44 (A)     -0.0291
               46      Vir  Beta       46 (A)      0.2878
               47      Vir  Beta       47 (A)      0.2878
               57      Vir  Beta       57 (A)      0.4397
               58      Vir  Beta       58 (A)      0.4397


 EOMIP transition 19/A
 Total energy = -498.91597241 a.u.  Excitation energy = 9.7703 eV.
 R1^2 = 0.0326  R2^2 = 0.9674  Res^2 = 3.48e-06
 Conv-d = yes

 Amplitude    Transitions between orbitals
  0.8781       44 (A) A      44 (A) B    ->    47 (A) B     
 -0.8781       44 (A) B      44 (A) A    ->    47 (A) B     
 -0.1860       44 (A) A      44 (A) B    ->    46 (A) B     
  0.1860       44 (A) B      44 (A) A    ->    46 (A) B     
  0.1183       44 (A) A      43 (A) B    ->    46 (A) B     
 -0.1183       43 (A) B      44 (A) A    ->    46 (A) B     
 -0.1174       41 (A) A      41 (A) B    ->    47 (A) B     
  0.1174       41 (A) B      41 (A) A    ->    47 (A) B     
 -0.1133       42 (A) A      42 (A) B    ->    47 (A) B     
  0.1133       42 (A) B      42 (A) A    ->    47 (A) B     
 -0.1084       42 (A) A      44 (A) B    ->    57 (A) B     
  0.1084       44 (A) B      42 (A) A    ->    57 (A) B     
  0.1078       41 (A) A      44 (A) B    ->    58 (A) B     
 -0.1078       44 (A) B      41 (A) A    ->    58 (A) B     

              Summary of significant orbitals:

               Number  Type             Irrep      Energy
               41      Occ  Alpha      41 (A)     -0.1770
               42      Occ  Alpha      42 (A)     -0.1770
               44      Occ  Alpha      44 (A)     -0.0291
               41      Occ  Beta       41 (A)     -0.1770
               42      Occ  Beta       42 (A)     -0.1770
               43      Occ  Beta       43 (A)     -0.1658
               44      Occ  Beta       44 (A)     -0.0291
               46      Vir  Beta       46 (A)      0.2878
               47      Vir  Beta       47 (A)      0.2878
               57      Vir  Beta       57 (A)      0.4397
               58      Vir  Beta       58 (A)      0.4397


 EOMIP transition 20/A
 Total energy = -498.91435652 a.u.  Excitation energy = 9.8142 eV.
 R1^2 = 0.1358  R2^2 = 0.8642  Res^2 = 2.34e-06
 Conv-d = yes

 Amplitude    Transitions between orbitals
 -0.8626       44 (A) A      44 (A) B    ->    45 (A) B     
  0.8626       44 (A) B      44 (A) A    ->    45 (A) B     
  0.1228       42 (A) A      42 (A) B    ->    45 (A) B     
 -0.1228       42 (A) B      42 (A) A    ->    45 (A) B     
  0.1214       41 (A) A      41 (A) B    ->    45 (A) B     
 -0.1214       41 (A) B      41 (A) A    ->    45 (A) B     

              Summary of significant orbitals:

               Number  Type             Irrep      Energy
               41      Occ  Alpha      41 (A)     -0.1770
               42      Occ  Alpha      42 (A)     -0.1770
               44      Occ  Alpha      44 (A)     -0.0291
               41      Occ  Beta       41 (A)     -0.1770
               42      Occ  Beta       42 (A)     -0.1770
               44      Occ  Beta       44 (A)     -0.0291
               45      Vir  Beta       45 (A)      0.2869


 EOMIP transition 21/A
 Total energy = -498.87880609 a.u.  Excitation energy = 10.7816 eV.
 R1^2 = 0.0000  R2^2 = 1.0000  Res^2 = 2.18e-06
 Conv-d = yes

 Amplitude    Transitions between orbitals
  0.3086       43 (A) A      44 (A) B    ->    46 (A) B     
 -0.3086       44 (A) B      43 (A) A    ->    46 (A) B     
 -0.3085       43 (A) A      44 (A) A    ->    46 (A) A     
  0.3085       44 (A) A      43 (A) A    ->    46 (A) A     
 -0.3083       44 (A) A      43 (A) B    ->    46 (A) B     
  0.3083       43 (A) B      44 (A) A    ->    46 (A) B     
  0.2706       41 (A) A      44 (A) A    ->    45 (A) A     
 -0.2706       44 (A) A      41 (A) A    ->    45 (A) A     
 -0.2699       41 (A) A      44 (A) B    ->    45 (A) B     
  0.2699       44 (A) B      41 (A) A    ->    45 (A) B     
  0.2695       44 (A) A      41 (A) B    ->    45 (A) B     
 -0.2695       41 (A) B      44 (A) A    ->    45 (A) B     
 -0.2218       44 (A) A      42 (A) B    ->    45 (A) B     
  0.2218       42 (A) B      44 (A) A    ->    45 (A) B     
  0.2217       42 (A) A      44 (A) B    ->    45 (A) B     
 -0.2217       44 (A) B      42 (A) A    ->    45 (A) B     
 -0.2214       42 (A) A      44 (A) A    ->    45 (A) A     
  0.2214       44 (A) A      42 (A) A    ->    45 (A) A     
  0.1457       39 (A) A      44 (A) A    ->    45 (A) A     
 -0.1457       44 (A) A      39 (A) A    ->    45 (A) A     
  0.1454       44 (A) A      39 (A) B    ->    45 (A) B     
 -0.1454       39 (A) B      44 (A) A    ->    45 (A) B     
 -0.1452       39 (A) A      44 (A) B    ->    45 (A) B     
  0.1452       44 (A) B      39 (A) A    ->    45 (A) B     
  0.1068       40 (A) A      44 (A) A    ->    46 (A) A     
 -0.1068       44 (A) A      40 (A) A    ->    46 (A) A     
 -0.1066       40 (A) A      44 (A) B    ->    46 (A) B     
  0.1066       44 (A) B      40 (A) A    ->    46 (A) B     
  0.1066       44 (A) A      40 (A) B    ->    46 (A) B     
 -0.1066       40 (A) B      44 (A) A    ->    46 (A) B     

              Summary of significant orbitals:

               Number  Type             Irrep      Energy
               39      Occ  Alpha      39 (A)     -0.2960
               40      Occ  Alpha      40 (A)     -0.2960
               41      Occ  Alpha      41 (A)     -0.1770
               42      Occ  Alpha      42 (A)     -0.1770
               43      Occ  Alpha      43 (A)     -0.1658
               44      Occ  Alpha      44 (A)     -0.0291
               39      Occ  Beta       39 (A)     -0.2960
               40      Occ  Beta       40 (A)     -0.2960
               41      Occ  Beta       41 (A)     -0.1770
               42      Occ  Beta       42 (A)     -0.1770
               43      Occ  Beta       43 (A)     -0.1658
               44      Occ  Beta       44 (A)     -0.0291
               45      Vir  Alpha      45 (A)      0.2869
               46      Vir  Alpha      46 (A)      0.2878
               45      Vir  Beta       45 (A)      0.2869
               46      Vir  Beta       46 (A)      0.2878


 EOMIP transition 22/A
 Total energy = -498.87878154 a.u.  Excitation energy = 10.7823 eV.
 R1^2 = 0.0000  R2^2 = 1.0000  Res^2 = 1.02e-06
 Conv-d = yes

 Amplitude    Transitions between orbitals
 -0.3075       43 (A) A      44 (A) B    ->    47 (A) B     
  0.3075       44 (A) B      43 (A) A    ->    47 (A) B     
  0.3072       43 (A) A      44 (A) A    ->    47 (A) A     
 -0.3072       44 (A) A      43 (A) A    ->    47 (A) A     
  0.3070       44 (A) A      43 (A) B    ->    47 (A) B     
 -0.3070       43 (A) B      44 (A) A    ->    47 (A) B     
  0.2773       42 (A) A      44 (A) B    ->    45 (A) B     
 -0.2773       44 (A) B      42 (A) A    ->    45 (A) B     
 -0.2769       42 (A) A      44 (A) A    ->    45 (A) A     
  0.2769       44 (A) A      42 (A) A    ->    45 (A) A     
 -0.2768       44 (A) A      42 (A) B    ->    45 (A) B     
  0.2768       42 (A) B      44 (A) A    ->    45 (A) B     
 -0.2222       41 (A) A      44 (A) A    ->    45 (A) A     
  0.2222       44 (A) A      41 (A) A    ->    45 (A) A     
 -0.2219       44 (A) A      41 (A) B    ->    45 (A) B     
  0.2219       41 (A) B      44 (A) A    ->    45 (A) B     
  0.2214       41 (A) A      44 (A) B    ->    45 (A) B     
 -0.2214       44 (A) B      41 (A) A    ->    45 (A) B     
 -0.1287       44 (A) A      40 (A) B    ->    45 (A) B     
  0.1287       40 (A) B      44 (A) A    ->    45 (A) B     
 -0.1285       40 (A) A      44 (A) A    ->    45 (A) A     
  0.1285       44 (A) A      40 (A) A    ->    45 (A) A     
  0.1283       40 (A) A      44 (A) B    ->    45 (A) B     
 -0.1283       44 (A) B      40 (A) A    ->    45 (A) B     
  0.1160       44 (A) A      40 (A) B    ->    47 (A) B     
 -0.1160       40 (A) B      44 (A) A    ->    47 (A) B     
  0.1159       40 (A) A      44 (A) A    ->    47 (A) A     
 -0.1159       44 (A) A      40 (A) A    ->    47 (A) A     
 -0.1154       40 (A) A      44 (A) B    ->    47 (A) B     
  0.1154       44 (A) B      40 (A) A    ->    47 (A) B     
 -0.1058       44 (A) A      39 (A) B    ->    46 (A) B     
  0.1058       39 (A) B      44 (A) A    ->    46 (A) B     
 -0.1056       39 (A) A      44 (A) A    ->    46 (A) A     
  0.1056       44 (A) A      39 (A) A    ->    46 (A) A     
  0.1051       39 (A) A      44 (A) B    ->    46 (A) B     
 -0.1051       44 (A) B      39 (A) A    ->    46 (A) B     

              Summary of significant orbitals:

               Number  Type             Irrep      Energy
               39      Occ  Alpha      39 (A)     -0.2960
               40      Occ  Alpha      40 (A)     -0.2960
               41      Occ  Alpha      41 (A)     -0.1770
               42      Occ  Alpha      42 (A)     -0.1770
               43      Occ  Alpha      43 (A)     -0.1658
               44      Occ  Alpha      44 (A)     -0.0291
               39      Occ  Beta       39 (A)     -0.2960
               40      Occ  Beta       40 (A)     -0.2960
               41      Occ  Beta       41 (A)     -0.1770
               42      Occ  Beta       42 (A)     -0.1770
               43      Occ  Beta       43 (A)     -0.1658
               44      Occ  Beta       44 (A)     -0.0291
               45      Vir  Alpha      45 (A)      0.2869
               46      Vir  Alpha      46 (A)      0.2878
               47      Vir  Alpha      47 (A)      0.2878
               45      Vir  Beta       45 (A)      0.2869
               46      Vir  Beta       46 (A)      0.2878
               47      Vir  Beta       47 (A)      0.2878


 EOMIP transition 23/A
 Total energy = -498.86655693 a.u.  Excitation energy = 11.1149 eV.
 R1^2 = 0.8965  R2^2 = 0.1035  Res^2 = 1.20e-06
 Conv-d = yes

 Amplitude    Transitions between orbitals
  0.9454       28 (A) A                  ->    infty        
  0.0405       19 (A) A                  ->    infty        
 -0.0332       32 (A) A                  ->    infty        
 -0.0070       14 (A) A                  ->    infty        

              Summary of significant orbitals:

               Number  Type             Irrep      Energy
               14      Occ  Alpha      14 (A)     -1.0230
               19      Occ  Alpha      19 (A)     -0.8446
               28      Occ  Alpha      28 (A)     -0.4832
               32      Occ  Alpha      32 (A)     -0.4088


 EOMIP transition 24/A
 Total energy = -498.86093600 a.u.  Excitation energy = 11.2679 eV.
 R1^2 = 0.0089  R2^2 = 0.9911  Res^2 = 4.99e-07
 Conv-d = yes

 Amplitude    Transitions between orbitals
  0.6400       43 (A) A      44 (A) B    ->    45 (A) B     
 -0.6400       44 (A) B      43 (A) A    ->    45 (A) B     
  0.3467       43 (A) A      44 (A) A    ->    45 (A) A     
 -0.3467       44 (A) A      43 (A) A    ->    45 (A) A     
  0.2895       44 (A) A      43 (A) B    ->    45 (A) B     
 -0.2895       43 (A) B      44 (A) A    ->    45 (A) B     
  0.2126       42 (A) A      44 (A) B    ->    46 (A) B     
 -0.2126       44 (A) B      42 (A) A    ->    46 (A) B     
 -0.2118       41 (A) A      44 (A) B    ->    47 (A) B     
  0.2118       44 (A) B      41 (A) A    ->    47 (A) B     
 -0.1555       41 (A) A      44 (A) B    ->    46 (A) B     
  0.1555       44 (A) B      41 (A) A    ->    46 (A) B     
 -0.1553       42 (A) A      44 (A) B    ->    47 (A) B     
  0.1553       44 (A) B      42 (A) A    ->    47 (A) B     
  0.1520       42 (A) A      44 (A) A    ->    46 (A) A     
 -0.1520       44 (A) A      42 (A) A    ->    46 (A) A     
 -0.1498       41 (A) A      44 (A) A    ->    47 (A) A     
  0.1498       44 (A) A      41 (A) A    ->    47 (A) A     
  0.1385       39 (A) A      44 (A) B    ->    58 (A) B     
 -0.1385       44 (A) B      39 (A) A    ->    58 (A) B     
  0.1382       40 (A) A      44 (A) B    ->    57 (A) B     
 -0.1382       44 (A) B      40 (A) A    ->    57 (A) B     
  0.1109       33 (A) A      44 (A) B    ->    62 (A) B     
 -0.1109       44 (A) B      33 (A) A    ->    62 (A) B     
 -0.1103       42 (A) A      44 (A) A    ->    47 (A) A     
  0.1103       44 (A) A      42 (A) A    ->    47 (A) A     
 -0.1102       41 (A) A      44 (A) A    ->    46 (A) A     
  0.1102       44 (A) A      41 (A) A    ->    46 (A) A     

              Summary of significant orbitals:

               Number  Type             Irrep      Energy
               33      Occ  Alpha      33 (A)     -0.3848
               39      Occ  Alpha      39 (A)     -0.2960
               40      Occ  Alpha      40 (A)     -0.2960
               41      Occ  Alpha      41 (A)     -0.1770
               42      Occ  Alpha      42 (A)     -0.1770
               43      Occ  Alpha      43 (A)     -0.1658
               44      Occ  Alpha      44 (A)     -0.0291
               43      Occ  Beta       43 (A)     -0.1658
               44      Occ  Beta       44 (A)     -0.0291
               45      Vir  Alpha      45 (A)      0.2869
               46      Vir  Alpha      46 (A)      0.2878
               47      Vir  Alpha      47 (A)      0.2878
               45      Vir  Beta       45 (A)      0.2869
               46      Vir  Beta       46 (A)      0.2878
               47      Vir  Beta       47 (A)      0.2878
               57      Vir  Beta       57 (A)      0.4397
               58      Vir  Beta       58 (A)      0.4397
               62      Vir  Beta       62 (A)      0.5986


 EOMIP transition 25/A
 Total energy = -498.85581338 a.u.  Excitation energy = 11.4073 eV.
 R1^2 = 0.0000  R2^2 = 1.0000  Res^2 = 2.36e-06
 Conv-d = yes

 Amplitude    Transitions between orbitals
 -0.3626       42 (A) A      44 (A) A    ->    47 (A) A     
  0.3626       44 (A) A      42 (A) A    ->    47 (A) A     
 -0.3618       44 (A) A      42 (A) B    ->    47 (A) B     
  0.3618       42 (A) B      44 (A) A    ->    47 (A) B     
  0.3616       44 (A) A      41 (A) B    ->    46 (A) B     
 -0.3616       41 (A) B      44 (A) A    ->    46 (A) B     
  0.3615       41 (A) A      44 (A) A    ->    46 (A) A     
 -0.3615       44 (A) A      41 (A) A    ->    46 (A) A     
  0.3615       42 (A) A      44 (A) B    ->    47 (A) B     
 -0.3615       44 (A) B      42 (A) A    ->    47 (A) B     
 -0.3604       41 (A) A      44 (A) B    ->    46 (A) B     
  0.3604       44 (A) B      41 (A) A    ->    46 (A) B     
  0.1121       39 (A) A      44 (A) A    ->    45 (A) A     
 -0.1121       44 (A) A      39 (A) A    ->    45 (A) A     
  0.1117       44 (A) A      39 (A) B    ->    45 (A) B     
 -0.1117       39 (A) B      44 (A) A    ->    45 (A) B     
 -0.1105       39 (A) A      44 (A) B    ->    45 (A) B     
  0.1105       44 (A) B      39 (A) A    ->    45 (A) B     

              Summary of significant orbitals:

               Number  Type             Irrep      Energy
               39      Occ  Alpha      39 (A)     -0.2960
               41      Occ  Alpha      41 (A)     -0.1770
               42      Occ  Alpha      42 (A)     -0.1770
               44      Occ  Alpha      44 (A)     -0.0291
               39      Occ  Beta       39 (A)     -0.2960
               41      Occ  Beta       41 (A)     -0.1770
               42      Occ  Beta       42 (A)     -0.1770
               44      Occ  Beta       44 (A)     -0.0291
               45      Vir  Alpha      45 (A)      0.2869
               46      Vir  Alpha      46 (A)      0.2878
               47      Vir  Alpha      47 (A)      0.2878
               45      Vir  Beta       45 (A)      0.2869
               46      Vir  Beta       46 (A)      0.2878
               47      Vir  Beta       47 (A)      0.2878


 EOMIP transition 26/A
 Total energy = -498.85576460 a.u.  Excitation energy = 11.4086 eV.
 R1^2 = 0.0000  R2^2 = 1.0000  Res^2 = 9.41e-06
 Conv-d = yes

 Amplitude    Transitions between orbitals
 -0.3729       41 (A) A      44 (A) A    ->    47 (A) A     
  0.3729       44 (A) A      41 (A) A    ->    47 (A) A     
 -0.3703       44 (A) A      41 (A) B    ->    47 (A) B     
  0.3703       41 (A) B      44 (A) A    ->    47 (A) B     
  0.3691       41 (A) A      44 (A) B    ->    47 (A) B     
 -0.3691       44 (A) B      41 (A) A    ->    47 (A) B     
  0.3539       42 (A) A      44 (A) B    ->    46 (A) B     
 -0.3539       44 (A) B      42 (A) A    ->    46 (A) B     
 -0.3513       44 (A) A      42 (A) B    ->    46 (A) B     
  0.3513       42 (A) B      44 (A) A    ->    46 (A) B     
 -0.3497       42 (A) A      44 (A) A    ->    46 (A) A     
  0.3497       44 (A) A      42 (A) A    ->    46 (A) A     
 -0.1141       40 (A) A      44 (A) B    ->    45 (A) B     
  0.1141       44 (A) B      40 (A) A    ->    45 (A) B     
  0.1126       40 (A) A      44 (A) A    ->    45 (A) A     
 -0.1126       44 (A) A      40 (A) A    ->    45 (A) A     
[...]
 Ket state:  Computed S^2 = 0.750000 will be treated as 0.750000 Sz = -0.500000
 Bra state:  Computed S^2 = 0.750001 will be treated as 0.750000 Sz = -0.500000
 Clebsh-Gordan coefficient: <0.500,-0.500;1.000,0.000|0.500,-0.500> = -0.577
 _________________________________________________
 One-electron SO (cm-1)
 Reduced matrix elements:
 <S|| Hso(L-) ||S'> = (-0.017000,-0.063775)
 <S|| Hso(L0) ||S'> = (0.000000,0.018997)
 <S|| Hso(L+) ||S'> = (-0.017000,0.063775)
 SOCC = 0.077774
 Actual matrix elements:
       |Sz=-0.50>           |Sz=0.50>
 <Sz=-0.50|(0.000000,-0.010968)(-0.013880,0.052072)
 <Sz=0.50|(0.013880,0.052072)(0.000000,0.010968)
 _________________________________________________
 Mean-field SO (cm-1)
 Reduced matrix elements:
 <S|| Hso(L-) ||S'> = (-0.008724,-0.030083)
 <S|| Hso(L0) ||S'> = (0.000000,0.009051)
 <S|| Hso(L+) ||S'> = (-0.008724,0.030083)
 SOCC = 0.036916
 Actual matrix elements:
       |Sz=-0.50>           |Sz=0.50>
 <Sz=-0.50|(0.000000,-0.005226)(-0.007123,0.024563)
 <Sz=0.50|(0.007123,0.024563)(0.000000,0.005226)
 Singlet part of <S|| Hso(L0) ||S'> = (-0.000000,-0.000000) (excluded from all matrix elements)
 L-/L+ Averaged reduced matrix elements:
 <S|| Hso(L-) ||S'> = (-0.008724,-0.030083)
 <S|| Hso(L+) ||S'> = (-0.008724,0.030083)
 ______________________________________________________________
 B(Ket)->A(Bra) transition SO matrices
Full 2e SOC is not implemented withing libqints. 
I will do mean-field SOC with libqints, which is usually as good as full 2e SOC
 Analysing Sz ans S^2 of the pair of states...
 Ket state:  Computed S^2 = 0.750001 will be treated as 0.750000 Sz = -0.500000
 Bra state:  Computed S^2 = 0.750000 will be treated as 0.750000 Sz = -0.500000
 Clebsh-Gordan coefficient: <0.500,-0.500;1.000,0.000|0.500,-0.500> = -0.577
 _________________________________________________
 One-electron SO (cm-1)
 Reduced matrix elements:
 <S|| Hso(L-) ||S'> = (-0.001356,0.005880)
 <S|| Hso(L0) ||S'> = (0.000000,-0.019168)
 <S|| Hso(L+) ||S'> = (-0.001356,-0.005880)
 SOCC = 0.017131
 Actual matrix elements:
       |Sz=-0.50>           |Sz=0.50>
 <Sz=-0.50|(0.000000,0.011066)(-0.001107,-0.004801)
 <Sz=0.50|(0.001107,-0.004801)(0.000000,-0.011066)
 _________________________________________________
 Mean-field SO (cm-1)
 Reduced matrix elements:
 <S|| Hso(L-) ||S'> = (-0.000041,0.002584)
 <S|| Hso(L0) ||S'> = (0.000000,-0.009214)
 <S|| Hso(L+) ||S'> = (-0.000041,-0.002584)
 SOCC = 0.008093
 Actual matrix elements:
       |Sz=-0.50>           |Sz=0.50>
 <Sz=-0.50|(0.000000,0.005319)(-0.000034,-0.002110)
 <Sz=0.50|(0.000034,-0.002110)(0.000000,-0.005319)
 Singlet part of <S|| Hso(L0) ||S'> = (-0.000000,-0.000000) (excluded from all matrix elements)
 L-/L+ Averaged reduced matrix elements:
 <S|| Hso(L-) ||S'> = (-0.000041,0.002584)
 <S|| Hso(L+) ||S'> = (-0.000041,-0.002584)
 ______________________________________________________________
   Arithmetically averaged transition SO matrices
   (The phases shown, Ket and Bra assingment are from A(Ket)->B(Bra))
 _________________________________________________
 One-electron SO (cm-1)
 SOCC = 0.044063
 Actual matrix elements:
       |Sz=-0.50>           |Sz=0.50>
 <Sz=-0.50|(0.000000,-0.011017)(-0.006387,0.028436)
 <Sz=0.50|(0.006387,0.028436)(0.000000,0.011017)
 _________________________________________________
 Mean-field SO (cm-1)
 SOCC = 0.020891
 Actual matrix elements:
       |Sz=-0.50>           |Sz=0.50>
 <Sz=-0.50|(0.000000,-0.005273)(-0.003545,0.013336)
 <Sz=0.50|(0.003545,0.013336)(0.000000,0.005273)
 ______________________________________________________________

 ------------------------------------------------------------------------------
 State A: eomip_mp2/a: 1/A
 State B: eomip_mp2/a: 30/A
 Energy GAP = 0.405008 a.u. = 11.020823 eV
 Transition dipole moment (a.u.):
   A->B: 0.033657 (X -0.001386, Y -0.033629, Z -0.000063)
   B->A: 0.054192 (X -0.001377, Y -0.054174, Z -0.000022)
 Oscillator strength (a.u.): 0.000492
 Transition angular momentum against gauge origin (a.u.):
   A->B:  (X 0.000515i, Y 0.000513i, Z 0.001518i)
   B->A:  (X -0.000355i, Y -0.000140i, Z -0.001655i)
 Norm of one-particle transition density matrix:
   A->B: 0.727684;   B->A: 0.732694
   ||gamma^AB||*||gamma^BA||: 0.533170

 ______________________________________________________________
 A(Ket)->B(Bra) transition SO matrices
Full 2e SOC is not implemented withing libqints. 
I will do mean-field SOC with libqints, which is usually as good as full 2e SOC
 Analysing Sz ans S^2 of the pair of states...
 Ket state:  Computed S^2 = 0.750000 will be treated as 0.750000 Sz = -0.500000
 Bra state:  Computed S^2 = 0.750008 will be treated as 0.750000 Sz = -0.500000
 Clebsh-Gordan coefficient: <0.500,-0.500;1.000,0.000|0.500,-0.500> = -0.577
 _________________________________________________
 One-electron SO (cm-1)
 Reduced matrix elements:
 <S|| Hso(L-) ||S'> = (0.015047,0.007328)
 <S|| Hso(L0) ||S'> = (0.000000,-0.000364)
 <S|| Hso(L+) ||S'> = (0.015047,-0.007328)
 SOCC = 0.019329
 Actual matrix elements:
       |Sz=-0.50>           |Sz=0.50>
 <Sz=-0.50|(0.000000,0.000210)(0.012286,-0.005984)
 <Sz=0.50|(-0.012286,-0.005984)(0.000000,-0.000210)
 _________________________________________________
 Mean-field SO (cm-1)
 Reduced matrix elements:
 <S|| Hso(L-) ||S'> = (0.006851,0.004809)
 <S|| Hso(L0) ||S'> = (0.000000,0.000523)
 <S|| Hso(L+) ||S'> = (0.006851,-0.004809)
 SOCC = 0.009674
 Actual matrix elements:
       |Sz=-0.50>           |Sz=0.50>
 <Sz=-0.50|(0.000000,-0.000302)(0.005594,-0.003926)
 <Sz=0.50|(-0.005594,-0.003926)(0.000000,0.000302)
 Singlet part of <S|| Hso(L0) ||S'> = (-0.000000,-0.000000) (excluded from all matrix elements)
 L-/L+ Averaged reduced matrix elements:
 <S|| Hso(L-) ||S'> = (0.006851,0.004809)
 <S|| Hso(L+) ||S'> = (0.006851,-0.004809)
 ______________________________________________________________
 B(Ket)->A(Bra) transition SO matrices
Full 2e SOC is not implemented withing libqints. 
I will do mean-field SOC with libqints, which is usually as good as full 2e SOC
 Analysing Sz ans S^2 of the pair of states...
 Ket state:  Computed S^2 = 0.750008 will be treated as 0.750000 Sz = -0.500000
 Bra state:  Computed S^2 = 0.750000 will be treated as 0.750000 Sz = -0.500000
 Clebsh-Gordan coefficient: <0.500,-0.500;1.000,0.000|0.500,-0.500> = -0.577
 _________________________________________________
 One-electron SO (cm-1)
 Reduced matrix elements:
 <S|| Hso(L-) ||S'> = (-0.007089,-0.006016)
 <S|| Hso(L0) ||S'> = (0.000000,0.000028)
 <S|| Hso(L+) ||S'> = (-0.007089,0.006016)
 SOCC = 0.010736
 Actual matrix elements:
       |Sz=-0.50>           |Sz=0.50>
 <Sz=-0.50|(0.000000,-0.000016)(-0.005789,0.004912)
 <Sz=0.50|(0.005789,0.004912)(0.000000,0.000016)
 _________________________________________________
 Mean-field SO (cm-1)
 Reduced matrix elements:
 <S|| Hso(L-) ||S'> = (-0.003094,-0.004258)
 <S|| Hso(L0) ||S'> = (0.000000,-0.000564)
 <S|| Hso(L+) ||S'> = (-0.003094,0.004258)
 SOCC = 0.006095
 Actual matrix elements:
       |Sz=-0.50>           |Sz=0.50>
 <Sz=-0.50|(0.000000,0.000325)(-0.002526,0.003477)
 <Sz=0.50|(0.002526,0.003477)(0.000000,-0.000325)
 Singlet part of <S|| Hso(L0) ||S'> = (-0.000000,-0.000000) (excluded from all matrix elements)
 L-/L+ Averaged reduced matrix elements:
 <S|| Hso(L-) ||S'> = (-0.003094,-0.004258)
 <S|| Hso(L+) ||S'> = (-0.003094,0.004258)
 ______________________________________________________________
   Arithmetically averaged transition SO matrices
   (The phases shown, Ket and Bra assingment are from A(Ket)->B(Bra))
 _________________________________________________
 One-electron SO (cm-1)
 SOCC = 0.014924
 Actual matrix elements:
       |Sz=-0.50>           |Sz=0.50>
 <Sz=-0.50|(0.000000,0.000113)(0.009037,-0.005448)
 <Sz=0.50|(-0.009037,-0.005448)(0.000000,-0.000113)
 _________________________________________________
 Mean-field SO (cm-1)
 SOCC = 0.007782
 Actual matrix elements:
       |Sz=-0.50>           |Sz=0.50>
 <Sz=-0.50|(0.000000,-0.000314)(0.004060,-0.003701)
 <Sz=0.50|(-0.004060,-0.003701)(0.000000,0.000314)
 ______________________________________________________________


 All requested transition properties have been computed

 Transition Properties:   CPU 3981.79 s  wall 4493.78 s

 Total ccman2 time:   CPU 6806.67 s  wall 7317.01 s

 
 --------------------------------------------------------------
 
                    Orbital Energies (a.u.)
 --------------------------------------------------------------
 
 Alpha MOs
 -- Occupied --
-11.0855 -11.0855 -11.0855 -11.0846 -11.0845 -11.0845 -11.0732 -11.0479
-11.0479 -11.0478 -11.0478 -11.0477 -11.0477  -1.0230  -0.9462  -0.9462
 -0.8486  -0.8486  -0.8446  -0.7395  -0.6782  -0.6663  -0.6663  -0.5432
 -0.5431  -0.5221  -0.5220  -0.4832  -0.4262  -0.4262  -0.4145  -0.4088
 -0.3848  -0.3760  -0.3759  -0.3574  -0.3040  -0.3038  -0.2960  -0.2960
 -0.1770  -0.1770  -0.1658  -0.0291
 -- Virtual --
  0.2869   0.2878   0.2878   0.3166   0.3336   0.3336   0.3583   0.3583
  0.3700   0.4098   0.4195   0.4195   0.4397   0.4397   0.5523   0.5708
  0.5709   0.5986   0.6190   0.6190   0.6396   0.6476   0.6559   0.6560
  0.7465   0.7466   0.8117   0.8284   0.8342   0.8351   0.8351   0.8483
  0.8510   0.8511   0.8523   0.8523   0.9006   0.9007   0.9035   0.9036
  0.9078   0.9160   0.9228   0.9260   0.9260   0.9306   0.9367   0.9367
  0.9756   0.9785   1.0186   1.0186   1.0324   1.0324   1.0637   1.0700
  1.0809   1.0810   1.0857   1.0858   1.1147   1.1628   1.1628   1.2177
  1.2342   1.2343   1.2566   1.2609   1.2610   1.2873   1.2989   1.2989
  1.3198   1.3412   1.3509   1.3527   1.3527   1.3675   1.3808   1.3809
  1.4117   1.4117   1.4364   1.4444   1.4445   1.4595   1.4595   1.5113
  1.5114   1.5197   1.5241   1.5242   1.5717   1.6098   1.7317   1.7317
  1.7376   1.8051   1.8052   1.8203   1.8273   1.8274   1.8771   1.8829
  1.8880   1.8880   1.9223   1.9224   1.9662   1.9663   1.9724   2.0358
  2.0451   2.0529   2.0531   2.0631   2.0757   2.0760   2.0946   2.0956
  2.1191   2.1191   2.1300   2.1300   2.1586   2.1588   2.1985   2.1987
  2.2249   2.2481   2.2481   2.2503   2.2681   2.2682   2.2995   2.3053
  2.3198   2.3198   2.3225   2.3227   2.3287   2.3352   2.3528   2.3592
  2.3592   2.4649   2.4651   2.5325   2.5326   2.5610   2.5681   2.5763
  2.5821   2.5879   2.5881   2.6305   2.6307   2.7297   2.7299   2.7326
  2.8469   2.8471   2.8549   2.9017   2.9018   2.9828   3.0204   3.0205
  3.0896   3.0897   3.0971   3.2025   3.2027   3.2092   3.2786   3.2966
  3.3582   3.3585   3.4323   3.4326   3.9227   4.1014   4.1016
 --------------------------------------------------------------
 
          Ground-State Mulliken Net Atomic Charges

     Atom                 Charge (a.u.)
  ----------------------------------------
      1 C                     0.048051
      2 C                     0.008735
      3 C                    -0.058966
      4 C                    -0.048366
      5 C                    -0.059247
      6 C                     0.009090
      7 H                    -0.003380
      8 C                     0.009206
      9 C                     0.047701
     10 C                     0.009348
     11 C                    -0.058981
     12 C                     0.009351
     13 C                     0.047680
     14 C                     0.009106
     15 H                     0.015855
     16 H                    -0.003404
     17 H                    -0.003409
     18 H                     0.016100
     19 H                    -0.003564
     20 H                    -0.003364
     21 H                    -0.003584
     22 H                     0.016041
  ----------------------------------------
  Sum of atomic charges =     0.000000

 -----------------------------------------------------------------
                    Cartesian Multipole Moments
 -----------------------------------------------------------------
    Charge (ESU x 10^10)
                 0.0000
    Dipole Moment (Debye)
         X      -0.0010      Y       0.0016      Z       0.0012
       Tot       0.0023
    Quadrupole Moments (Debye-Ang)
        XX     -66.7733     XY       0.0016     YY     -66.7584
        XZ       0.0051     YZ      -0.0005     ZZ     -83.0151
    Octopole Moments (Debye-Ang^2)
       XXX      -1.4920    XXY       1.8843    XYY       1.4757
       YYY      -1.8756    XXZ       0.0311    XYZ      -0.0172
       YYZ       0.0091    XZZ      -0.0020    YZZ       0.0022
       ZZZ       0.0015
    Hexadecapole Moments (Debye-Ang^3)
      XXXX   -1224.0098   XXXY      -0.0229   XXYY    -407.9647
      XYYY       0.0497   YYYY   -1223.6050   XXXZ       0.0270
      XXYZ       0.0277   XYYZ       0.0402   YYYZ      -0.0532
      XXZZ    -268.7684   XYZZ      -0.0024   YYZZ    -268.7272
      XZZZ       0.0063   YZZZ      -0.0002   ZZZZ     -95.2491
 -----------------------------------------------------------------
 Mayer SCF Bond Order, atomic valence on the diagonal:

            1           2           3           4           5           6
    1   3.9505198   1.4512726  -0.0023685   0.0239181  -0.0023153   1.4522315
    2   1.4512726   3.8708624   1.3113827  -0.0020483   0.0338461   0.0142192
    3  -0.0023685   1.3113827   4.0435401   1.2934793  -0.0120103   0.0338608
    4   0.0239181  -0.0020483   1.2934793   3.9853871   1.2937501  -0.0021108
    5  -0.0023153   0.0338461  -0.0120103   1.2937501   4.0438053   1.3106842
    6   1.4522315   0.0142192   0.0338608  -0.0021108   1.3106842   3.8708057
    7  -0.0056392   0.0035516   0.0006106   0.0064424   0.0260962   0.9608087
    8   0.0126876  -0.0217125   1.3098845  -0.0022009   0.0020632   0.0186589
    9   0.0012083   0.0127154  -0.0023503   0.0237428   0.0027187   0.0086175
   10   0.0086142   0.0187248   0.0337221  -0.0021423   0.0020672   0.0183904
   11   0.0027220   0.0020721  -0.0120638   1.2930169  -0.0120313   0.0020612
   12   0.0086342   0.0183741   0.0020660  -0.0021030   0.0337733   0.0186552
   13   0.0012084   0.0086397   0.0027221   0.0238269  -0.0023397   0.0127224
   14   0.0127029   0.0186318   0.0020603  -0.0021676   1.3104693  -0.0217741
   15   0.9679056   0.0029709   0.0044813  -0.0001714   0.0044818   0.0028371
   16  -0.0055805   0.9607775   0.0261137   0.0064392   0.0006099   0.0035412
   17   0.0001804  -0.0070885   0.0261026   0.0064317  -0.0000502   0.0002055
   18   0.0000457   0.0007343   0.0044981  -0.0001711   0.0002029   0.0000183
   19   0.0000643   0.0001246   0.0006086   0.0064412  -0.0000505   0.0002611
   20   0.0001806   0.0002055  -0.0000488   0.0064350   0.0261366  -0.0070803
   21   0.0000645   0.0002617  -0.0000515   0.0064414   0.0006093   0.0001239
   22   0.0000450   0.0000186   0.0002027  -0.0001709   0.0044971   0.0007364
            7           8           9          10          11          12
    1  -0.0056392   0.0126876   0.0012083   0.0086142   0.0027220   0.0086342
    2   0.0035516  -0.0217125   0.0127154   0.0187248   0.0020721   0.0183741
    3   0.0006106   1.3098845  -0.0023503   0.0337221  -0.0120638   0.0020660
    4   0.0064424  -0.0022009   0.0237428  -0.0021423   1.2930169  -0.0021030
    5   0.0260962   0.0020632   0.0027187   0.0020672  -0.0120313   0.0337733
    6   0.9608087   0.0186589   0.0086175   0.0183904   0.0020612   0.0186552
    7   0.9897461   0.0001237   0.0000641   0.0002611  -0.0000496   0.0002058
    8   0.0001237   3.8703981   1.4523712   0.0144133   0.0337415   0.0187263
    9   0.0000641   1.4523712   3.9502994   1.4510832  -0.0023974   0.0126991
   10   0.0002611   0.0144133   1.4510832   3.8702332   1.3107551  -0.0216161
   11  -0.0000496   0.0337415  -0.0023974   1.3107551   4.0436517   1.3109699
   12   0.0002058   0.0187263   0.0126991  -0.0216161   1.3109699   3.8705043
   13   0.0001813   0.0085988   0.0012083   0.0126974  -0.0023514   1.4513397
   14  -0.0070765   0.0183971   0.0085991   0.0187443   0.0338202   0.0142880
   15  -0.0032515   0.0007351   0.0000446   0.0000186   0.0002025   0.0000184
   16   0.0009418  -0.0070678   0.0001810   0.0002061  -0.0000486   0.0002613
   17   0.0000313   0.9608331  -0.0056271   0.0035464   0.0006108   0.0001244
   18   0.0000124   0.0028475   0.9679228   0.0028537   0.0044918   0.0007347
   19   0.0000484   0.0035332  -0.0056258   0.9607673   0.0262214  -0.0070929
   20   0.0036738   0.0002609   0.0000640   0.0001244   0.0006111   0.0035467
   21   0.0000312   0.0002062   0.0001812  -0.0070856   0.0261427   0.9607636
   22   0.0000060   0.0000182   0.0000454   0.0007334   0.0044836   0.0028868
           13          14          15          16          17          18
    1   0.0012084   0.0127029   0.9679056  -0.0055805   0.0001804   0.0000457
    2   0.0086397   0.0186318   0.0029709   0.9607775  -0.0070885   0.0007343
    3   0.0027221   0.0020603   0.0044813   0.0261137   0.0261026   0.0044981
    4   0.0238269  -0.0021676  -0.0001714   0.0064392   0.0064317  -0.0001711
    5  -0.0023397   1.3104693   0.0044818   0.0006099  -0.0000502   0.0002029
    6   0.0127224  -0.0217741   0.0028371   0.0035412   0.0002055   0.0000183
    7   0.0001813  -0.0070765  -0.0032515   0.0009418   0.0000313   0.0000124
    8   0.0085988   0.0183971   0.0007351  -0.0070678   0.9608331   0.0028475
    9   0.0012083   0.0085991   0.0000446   0.0001810  -0.0056271   0.9679228
   10   0.0126974   0.0187443   0.0000186   0.0002061   0.0035464   0.0028537
   11  -0.0023514   0.0338202   0.0002025  -0.0000486   0.0006108   0.0044918
   12   1.4513397   0.0142880   0.0000184   0.0002613   0.0001244   0.0007347
   13   3.9504546   1.4521364   0.0000449   0.0000644   0.0000639   0.0000455
   14   1.4521364   3.8705688   0.0007352   0.0001235   0.0002614   0.0000183
   15   0.0000449   0.0007352   0.9789092  -0.0032691   0.0000058   0.0000173
   16   0.0000644   0.0001235  -0.0032691   0.9897693   0.0036695   0.0000060
   17   0.0000639   0.0002614   0.0000058   0.0036695   0.9897644  -0.0032519
   18   0.0000455   0.0000183   0.0000173   0.0000060  -0.0032519   0.9788637
   19   0.0001807   0.0002063   0.0000122   0.0000313   0.0009392  -0.0032589
   20  -0.0056541   0.9608227   0.0000060   0.0000313   0.0000486   0.0000123
   21  -0.0055614   0.0035351   0.0000123   0.0000485   0.0000313   0.0000060
   22   0.9679153   0.0028483   0.0000173   0.0000122   0.0000123   0.0000173
           19          20          21          22
    1   0.0000643   0.0001806   0.0000645   0.0000450
    2   0.0001246   0.0002055   0.0002617   0.0000186
    3   0.0006086  -0.0000488  -0.0000515   0.0002027
    4   0.0064412   0.0064350   0.0064414  -0.0001709
    5  -0.0000505   0.0261366   0.0006093   0.0044971
    6   0.0002611  -0.0070803   0.0001239   0.0007364
    7   0.0000484   0.0036738   0.0000312   0.0000060
    8   0.0035332   0.0002609   0.0002062   0.0000182
    9  -0.0056258   0.0000640   0.0001812   0.0000454
   10   0.9607673   0.0001244  -0.0070856   0.0007334
   11   0.0262214   0.0006111   0.0261427   0.0044836
   12  -0.0070929   0.0035467   0.9607636   0.0028868
   13   0.0001807  -0.0056541  -0.0055614   0.9679153
   14   0.0002063   0.9608227   0.0035351   0.0028483
   15   0.0000122   0.0000060   0.0000123   0.0000173
   16   0.0000313   0.0000313   0.0000485   0.0000122
   17   0.0009392   0.0000486   0.0000313   0.0000123
   18  -0.0032589   0.0000123   0.0000060   0.0000173
   19   0.9898023   0.0000314   0.0036658   0.0000059
   20   0.0000314   0.9897743   0.0009397  -0.0032483
   21   0.0036658   0.0009397   0.9897791  -0.0032664
   22   0.0000059  -0.0032483  -0.0032664   0.9788731


 Total job time:  7457.49s(wall), 6945.30s(cpu) 
 Mon Jun  3 17:01:47 2024

        *************************************************************
        *                                                           *
        *  Thank you very much for using Q-Chem.  Have a nice day.  *
        *                                                           *
        *************************************************************


