                  Welcome to Q-Chem
     A Quantum Leap Into The Future Of Chemistry


 Q-Chem 6.0 (devel), Q-Chem, Inc., Pleasanton, CA (2022)

 E. Epifanovsky,  A. T. B. Gilbert,  Xintian Feng,  Joonho Lee,  Yuezhi Mao,  
 N. Mardirossian,  P. Pokhilko,  A. White,  M. Wormit,  M. P. Coons,  
 A. L. Dempwolff,  Zhengting Gan,  D. Hait,  P. R. Horn,  L. D. Jacobson,  
 I. Kaliman,  J. Kussmann,  A. W. Lange,  Ka Un Lao,  D. S. Levine,  Jie Liu,  
 S. C. McKenzie,  A. F. Morrison,  K. Nanda,  F. Plasser,  D. R. Rehn,  
 M. L. Vidal,  Zhi-Qiang You,  Ying Zhu,  B. Alam,  B. Albrecht,  
 A. Aldossary,  E. Alguire,  J. H. Andersen,  V. Athavale,  D. Barton,  
 K. Begam,  A. Behn,  N. Bellonzi,  Y. A. Bernard,  E. J. Berquist,  
 H. Burton,  A. Carreras,  K. Carter-Fenk,  Romit Chakraborty,  
 Chandrima Chakravarty,  Junhan Chen,  A. D. Chien,  K. D. Closser,  
 V. Cofer-Shabica,  L. Cunha,  S. Dasgupta,  Jia Deng,  M. de Wergifosse,  
 M. Diedenhofen,  Hainam Do,  S. Ehlert,  Po-Tung Fang,  S. Fatehi,  
 Qingguo Feng,  T. Friedhoff,  B. Ganoe,  J. Gayvert,  Qinghui Ge,  
 G. Gidofalvi,  M. Goldey,  J. Gomes,  C. Gonzalez-Espinoza,  S. Gulania,  
 A. Gunina,  J. A. Gyamfi,  M. W. D. Hanson-Heine,  P. H. P. Harbach,  
 A. W. Hauser,  M. F. Herbst,  M. Hernandez Vera,  M. Hodecker,  
 Z. C. Holden,  S. Houck,  Xunkun Huang,  Kerwin Hui,  B. C. Huynh,  
 K. Ikeda,  M. Ivanov,  Hyunjun Ji,  Zuxin Jin,  Hanjie Jiang,  B. Kaduk,  
 S. Kaehler,  R. Kang,  K. Khistyaev,  Jaehoon Kim,  Yongbin Kim,  
 P. Klunzinger,  Z. Koczor-Benda,  Joong Hoon Koh,  D. Kosenkov,  
 Saikiran Kotaru,  L. Koulias,  T. Kowalczyk,  C. M. Krauter,  K. Kue,  
 A. Kunitsa,  T. Kus,  A. Landau,  K. V. Lawler,  D. Lefrancois,  S. Lehtola,  
 Rain Li,  Shaozhi Li,  Yi-Pei Li,  Jiashu Liang,  M. Liebenthal,  
 Hung-Hsuan Lin,  You-Sheng Lin,  Fenglai Liu,  Kuan-Yu Liu,  
 M. Loipersberger,  A. Luenser,  C. Malbon,  A. Manjanath,  P. Manohar,  
 E. Mansoor,  S. F. Manzer,  Shan-Ping Mao,  A. V. Marenich,  T. Markovich,  
 S. Mason,  F. Matz,  S. A. Maurer,  P. F. McLaughlin,  M. F. S. J. Menger,  
 J.-M. Mewes,  S. A. Mewes,  P. Morgante,  Mohammad Mostafanejad,  
 J. W. Mullinax,  K. J. Oosterbaan,  G. Paran,  V. Parravicini,  
 Alexander C. Paul,  Suranjan K. Paul,  F. Pavosevic,  Zheng Pei,  S. Prager,  
 E. I. Proynov,  E. Ramos,  B. Rana,  A. E. Rask,  A. Rettig,  R. M. Richard,  
 F. Rob,  E. Rossomme,  T. Scheele,  M. Scheurer,  M. Schneider,  
 P. E. Schneider,  N. Sergueev,  S. M. Sharada,  Hengyuan Shen,  
 W. Skomorowski,  D. W. Small,  C. J. Stein,  Yingli Su,  Yu-Chuan Su,  
 E. J. Sundstrom,  Zhen Tao,  J. Thirman,  Hung-Yi Tsai,  T. Tsuchimochi,  
 N. M. Tubman,  C. Utku,  S. P. Veccham,  O. Vydrov,  J. Wenzel,  
 Jonathan Wong,  J. Witte,  A. Yamada,  Chou-Hsun Yang,  Kun Yao,  
 S. Yeganeh,  S. R. Yost,  A. Zech,  F. Zeller,  Igor Ying Zhang,  
 Xing Zhang,  Yu Zhang,  D. Zuev,  A. Aspuru-Guzik,  A. T. Bell,  
 N. A. Besley,  K. B. Bravaya,  B. R. Brooks,  D. Casanova,  Jeng-Da Chai,  
 Hsing-Ta Chen,  S. Coriani,  C. J. Cramer,  A. E. DePrince, III,  
 R. A. DiStasio Jr.,  A. Dreuw,  B. D. Dunietz,  T. R. Furlani,  
 W. A. Goddard III,  S. Grimme,  S. Hammes-Schiffer,  T. Head-Gordon,  
 W. J. Hehre,  Chao-Ping Hsu,  T.-C. Jagau,  Yousung Jung,  A. Klamt,  
 Jing Kong,  D. S. Lambrecht,  Xiangyuan Li,  WanZhen Liang,  N. J. Mayhall,  
 C. W. McCurdy,  J. B. Neaton,  T. Neudecker,  C. Ochsenfeld,  
 J. A. Parkhill,  R. Peverati,  V. A. Rassolov,  Haisheng Ren,  Yihan Shao,  
 L. V. Slipchenko,  R. P. Steele,  J. E. Subotnik,  A. J. W. Thom,  
 A. Tkatchenko,  D. G. Truhlar,  T. Van Voorhis,  Fan Wang,  
 T. A. Wesolowski,  K. B. Whaley,  H. L. Woodcock III,  P. M. Zimmerman,  
 S. Faraji,  P. M. W. Gill,  M. Head-Gordon,  J. M. Herbert,  A. I. Krylov

 Contributors to earlier versions of Q-Chem not listed above: 
 R. D. Adamson,  B. Austin,  R. Baer,  J. Baker,  G. J. O. Beran,  
 K. Brandhorst,  S. T. Brown,  E. F. C. Byrd,  Arup K. Chakraborty,  
 G. K. L. Chan,  Chun-Min Chang,  Yunqing Chen,  C.-L. Cheng,  
 Siu Hung Chien,  D. M. Chipman,  D. L. Crittenden,  H. Dachsel,  
 R. J. Doerksen,  A. D. Dutoi,  R. G. Edgar,  J. Fosso-Tande,  
 L. Fusti-Molnar,  D. Ghosh,  A. Ghysels,  A. Golubeva-Zadorozhnaya,  
 J. Gonthier,  M. S. Gordon,  S. R. Gwaltney,  G. Hawkins,  J. E. Herr,  
 A. Heyden,  S. Hirata,  E. G. Hohenstein,  G. Kedziora,  F. J. Keil,  
 C. Kelley,  Jihan Kim,  R. A. King,  R. Z. Khaliullin,  P. P. Korambath,  
 W. Kurlancheek,  A. Laurent,  A. M. Lee,  M. S. Lee,  S. V. Levchenko,  
 Ching Yeh Lin,  D. Liotard,  E. Livshits,  R. C. Lochan,  I. Lotan,  
 L. A. Martinez-Martinez,  P. E. Maslen,  N. Nair,  D. P. O'Neill,  
 D. Neuhauser,  E. Neuscamman,  C. M. Oana,  R. Olivares-Amaya,  R. Olson,  
 T. M. Perrine,  B. Peters,  P. A. Pieniazek,  A. Prociuk,  Y. M. Rhee,  
 J. Ritchie,  M. A. Rohrdanz,  E. Rosta,  N. J. Russ,  H. F. Schaefer III,  
 M. W. Schmidt,  N. E. Schultz,  S. Sharma,  N. Shenvi,  C. D. Sherrill,  
 A. C. Simmonett,  A. Sodt,  T. Stein,  D. Stuck,  K. S. Thanthiriwatte,  
 V. Vanovschi,  L. Vogt,  Tao Wang,  A. Warshel,  M. A. Watson,  
 C. F. Williams,  Q. Wu,  X. Xu,  Jun Yang,  W. Zhang,  Yan Zhao

   Please cite Q-Chem as follows:
  "Software for the frontiers of quantum chemistry:
   An overview of developments in the Q-Chem 5 package"
   J. Chem. Phys. 155, 084801 (2021)
   https://doi.org/10.1063/5.0055522 (open access)

 Q-Chem 6.0.1 for Intel X86 EM64T Linux

 Parts of Q-Chem use Armadillo 9.900.5 (Nocturnal Misbehaviour).
 http://arma.sourceforge.net/

 Q-Chem begins on Mon Jun  3 14:43:08 2024  

 Host: atlas-306
0

     Scratch files written to ./qchem35226//
 Processing $rem in /scratch/abel/SOFTWARE/qchem/config/preferences:
 Processing $rem in /dipc/acebg/.qchemrc:
 Core orbitals will be frozen

 Checking the input file for inconsistencies... 	...done.

--------------------------------------------------------------
User input:
--------------------------------------------------------------
$comment
 EOM-CC CALCULATION
$end

$molecule
 READ 2Tm_doublet_cation.molecule
$end

$rem
!**CALCULATION TYPE***     
JOBTYPE            sp    
BASIS              cc-pVDZ

!***SCF REFERENCE***
!SKIP_SCFMAN        FALSE
UNRESTRICTED       FALSE
!SCF_GUESS          core
!SCF_GUESS_MIX      FALSE
!SCF_GUESS_ALWAYS   FALSE
MAX_SCF_CYCLES     500
!SCF_CONVERGENCE    10
SCF_ALGORITHM      DIIS_GDM !DIIS,DM,DIIS_DM,GDM,DIIS_GDM,GD

!SYMMETRY           TRUE   !use of symmetry for calculating integrals
!SYM_IGNORE         FALSE  !turn off using symmetry
!SYM_TOL            5      !tolerance for determining point group
!USE_ABELIAN_SUBGROUP      !define to use abelian group

!THRESH             14
SCF_FINAL_PRINT     1 !0,1,2,3

!****CCSD****
CORRELATION        CCSD
!CC_CONVERGENCE     6
!CC_MAX_ITER        200
CC_PRINT	   2
!CHOLESKY_TOL       3 !Toler. decomposition 2e integrals
CC_REF_PROP  	   1 !one-particle CCSD properties calculation
!CC_REF_PROP_TE	   0 !two-particle CCSD properties calculation
!CC_MEMORY	   5600
!CC_FNO_THRESH
!CC_BACKEND	   XM !Used to specify the computational back-end of CCMAN2.

!****EOM****
METHOD             EOM-MP2
EA_STATES	   [30] !IP, AE, SF, EE
CC_STATE_TO_OPT    [1,1]
CC_EOM_PROP        1
CC_EOM_PROP_TE	   1
CC_TRANS_PROP      1
CALC_SOC           TRUE   !calculate SOC for EOM-CC, RAS-CI, ADC, TDDFT/TDA and TDDFT

!****MEMORY****
MEM_TOTAL 90000
CC_MEMORY 72000
MEM_STATIC 1000

!**Molecular Properties and Analysis **                                                                                          
!POP_MULLIKEN       TRUE   !Run Mulliken population analysis
!LOWDIN_POPULATION  TRUE   !Run Löwdin population analysis
GUI                 2       !Checkpoints generation
!STATE_ANALYSIS     TRUE
$end

--------------------------------------------------------------
 ----------------------------------------------------------------
             Standard Nuclear Orientation (Angstroms)
    I     Atom           X                Y                Z
 ----------------------------------------------------------------
    1      C       0.6243679838    -2.7362621432     0.0003164261
    2      C      -0.7015735948    -2.3361348215    -0.0001649656
    3      C      -1.0419824835    -0.9670971198    -0.0008439034
    4      C      -0.0000548132     0.0000772801    -0.0007831605
    5      C       1.3584588456    -0.4190204443    -0.0006995145
    6      C       1.6452104651    -1.8007803647     0.0005070396
    7      H       2.6803978057    -2.1201859378     0.0010792188
    8      C      -2.3824177811    -0.5244633738    -0.0001682759
    9      C      -2.6817315780     0.8273312149     0.0010471198
   10      C      -1.6726421175     1.7759152657     0.0004904235
   11      C      -0.3163469004     1.3862234269    -0.0005293069
   12      C       0.7367752863     2.3252776938    -0.0005747718
   13      C       2.0576065541     1.9084870347     0.0003141988
   14      C       2.3743006152     0.5606173675     0.0003067751
   15      H       0.8642366403    -3.7915666760     0.0017549180
   16      H      -1.4954579885    -3.0731591179    -0.0014156115
   17      H      -3.1763935341    -1.2613339838    -0.0004689351
   18      H      -3.7163564276     1.1467917750     0.0019081870
   19      H      -1.9134249087     2.8315998155     0.0005558156
   20      H       3.4093648619     0.2407464211     0.0016850583
   21      H       0.4965831230     3.3810858808    -0.0007420755
   22      H       2.8512275382     2.6449957256     0.0003349189
 ----------------------------------------------------------------
 Molecular Point Group                 C1    NOp =  1
 Largest Abelian Subgroup              C1    NOp =  1
 Nuclear Repulsion Energy =         700.08505759 hartrees
 There are       43 alpha and       43 beta electrons
 Requested basis set is cc-pVDZ
 There are 105 shells and 227 basis functions
 Total memory of 90000 MB is distributed as follows: 
   MEM_STATIC is set to 1000 MB
   QALLOC/CCMAN JOB total memory use is  89000 MB
 Warning: actual memory use might exceed 90000 MB

 Total QAlloc Memory Limit  90000 MB
 Mega-Array Size       978 MB
 MEM_STATIC part      1000 MB

 A cutoff of  1.0D-14 yielded   5181 shell pairs
 There are     24607 function pairs (     27606 Cartesian)
 Smallest overlap matrix eigenvalue = 1.32E-04

 Scale SEOQF with 1.000000e-01/1.000000e-01/1.000000e+00

 Standard Electronic Orientation quadrupole field applied
 Nucleus-field energy     =     0.0000000272 hartrees
 Guess from superposition of atomic densities
 Warning:  Energy on first SCF cycle will be non-variational
 SAD guess density has 87.000000 electrons

 -----------------------------------------------------------------------
  General SCF calculation program by
  Eric Jon Sundstrom, Paul Horn, Yuezhi Mao, Dmitri Zuev, Alec White,
  David Stuck, Shaama M.S., Shane Yost, Joonho Lee, David Small,
  Daniel Levine, Susi Lehtola, Hugh Burton, Evgeny Epifanovsky,
  Bang C. Huynh
 -----------------------------------------------------------------------
 Hartree-Fock
 A restricted SCF calculation will be
 performed using DIIS, GDM
 SCF converges when RMS gradient is below 1.0e-08
 ---------------------------------------
  Cycle       Energy         DIIS error
 ---------------------------------------
    1    -503.8622349560      5.80e-02  
    2    -497.2190988720      3.80e-03  Done DIIS. Switching to GDM
 ---------------------------------------
  Cycle       Energy        RMS Gradient
 ---------------------------------------
    1    -497.2190988720      6.61e-02   Descent step
    2    -497.3591628841      2.38e-02   Normal BFGS step
    3    -497.3725900918      1.02e-02   Normal BFGS step
    4    -497.3740255409      7.66e-03   Normal BFGS step
    5    -497.3742140607      2.05e-03   Normal BFGS step
    6    -497.3742632502      7.43e-04   Normal BFGS step
    7    -497.3742769790      1.69e-04   Normal BFGS step
    8    -497.3742775085      1.00e-04   Normal BFGS step
    9    -497.3742775808      3.22e-05   Normal BFGS step
   10    -497.3742775863      5.50e-06   Normal BFGS step
   11    -497.3742775867      1.41e-06   Normal BFGS step
   12    -497.3742775867      1.16e-06   Normal BFGS step
   13    -497.3742775867      1.25e-07   Normal BFGS step
   14    -497.3742775867      3.92e-08   Normal BFGS step
   15    -497.3742775867      2.68e-08   Normal BFGS step
   16    -497.3742775867      1.47e-08   Normal BFGS step
   17    -497.3742775867      4.90e-09  Convergence criterion met
 ---------------------------------------
 DFT Correlation    Energy =   0.00000000000000
 DFT Exchange       Energy =   0.00000000000000
 HF Exchange        Energy = -70.46966265122120
 Kinetic            Energy =   0.00000000000000
 Nuclear Attraction Energy =   0.00000000000000
 One-Electron       Energy = -2046.20943366004735
 Total Coulomb      Energy = 919.21976111195090
 Final Alpha MO Eigenvalues
            1           2           3           4           5           6
    1 -11.4381361 -11.4380929 -11.4380197 -11.4379813 -11.4379395 -11.4378940
            7           8           9          10          11          12
    1 -11.4147905 -11.4108085 -11.4107780 -11.4105776 -11.3983129 -11.3982695
           13          14          15          16          17          18
    1 -11.3981956  -1.3690042  -1.2950268  -1.2949993  -1.1972069  -1.1971671
           19          20          21          22          23          24
    1  -1.1817911  -1.0887993  -1.0233199  -1.0058390  -1.0057622  -0.8854852
           25          26          27          28          29          30
    1  -0.8854368  -0.8648324  -0.8647707  -0.8208392  -0.7728019  -0.7727509
           31          32          33          34          35          36
    1  -0.7683029  -0.7353377  -0.7175842  -0.7140862  -0.7140421  -0.7090067
           37          38          39          40          41          42
    1  -0.6445856  -0.6443793  -0.6204104  -0.6203939  -0.4946882  -0.4880999
           43          44          45          46          47          48
    1  -0.4880724  -0.1704321  -0.0421914  -0.0230910  -0.0230665   0.0409974
           49          50          51          52          53          54
    1   0.0621145   0.0621344   0.0877611   0.0877913   0.1126900   0.1207734
           55          56          57          58          59          60
    1   0.1208260   0.1334517   0.1544933   0.1545135   0.2353488   0.2560372
           61          62          63          64          65          66
    1   0.2560669   0.2699932   0.2943014   0.2943962   0.3226888   0.3246630
           67          68          69          70          71          72
    1   0.3247688   0.3377659   0.4226002   0.4226522   0.4832392   0.4994564
           73          74          75          76          77          78
    1   0.5065125   0.5119783   0.5120040   0.5120304   0.5257984   0.5258317
           79          80          81          82          83          84
    1   0.5288513   0.5289068   0.5712298   0.5712918   0.5722116   0.5790152
           85          86          87          88          89          90
    1   0.5790751   0.5859165   0.5859395   0.5863925   0.6020255   0.6049184
           91          92          93          94          95          96
    1   0.6197583   0.6198054   0.6498671   0.6562266   0.6960299   0.6960424
           97          98          99         100         101         102
    1   0.7155485   0.7155892   0.7382042   0.7481712   0.7589780   0.7590712
          103         104         105         106         107         108
    1   0.7605355   0.7606295   0.7901855   0.8298282   0.8298519   0.8925445
          109         110         111         112         113         114
    1   0.8949671   0.8951035   0.9275941   0.9336302   0.9336758   0.9793613
          115         116         117         118         119         120
    1   0.9794627   0.9813322   0.9953034   1.0114550   1.0114726   1.0119151
          121         122         123         124         125         126
    1   1.0143926   1.0226056   1.0489377   1.0490021   1.0777263   1.0777670
          127         128         129         130         131         132
    1   1.0923926   1.1097870   1.1098431   1.1406924   1.1407510   1.1703719
          133         134         135         136         137         138
    1   1.1704401   1.1923632   1.1938231   1.1939918   1.2360239   1.2780201
          139         140         141         142         143         144
    1   1.4037003   1.4037352   1.4103668   1.4706726   1.4706933   1.4770662
          145         146         147         148         149         150
    1   1.4887223   1.4887754   1.5516837   1.5517355   1.5528274   1.5559766
          151         152         153         154         155         156
    1   1.5942535   1.5943471   1.6355897   1.6356836   1.6419496   1.6995555
          157         158         159         160         161         162
    1   1.7085894   1.7240455   1.7242307   1.7350121   1.7388934   1.7392730
          163         164         165         166         167         168
    1   1.7622296   1.7637549   1.7923514   1.7924034   1.7957511   1.7958122
          169         170         171         172         173         174
    1   1.8246245   1.8247590   1.8731643   1.8733231   1.8990112   1.9129743
          175         176         177         178         179         180
    1   1.9201945   1.9202658   1.9309189   1.9310293   1.9651698   1.9658217
          181         182         183         184         185         186
    1   1.9766914   1.9768486   1.9840770   1.9860087   1.9861509   2.0084606
          187         188         189         190         191         192
    1   2.0285491   2.0288452   2.0289554   2.1370949   2.1371787   2.1961635
          193         194         195         196         197         198
    1   2.1962022   2.2194483   2.2255210   2.2399620   2.2485802   2.2490990
          199         200         201         202         203         204
    1   2.2493248   2.2872729   2.2874065   2.3876698   2.3879301   2.3922386
          205         206         207         208         209         210
    1   2.5028225   2.5030054   2.5210819   2.5785412   2.5786538   2.6626056
          211         212         213         214         215         216
    1   2.6839607   2.6840535   2.7537548   2.7557632   2.7559177   2.8707863
          217         218         219         220         221         222
    1   2.8709719   2.8730888   2.9435903   2.9594210   3.0255596   3.0258801
          223         224         225         226         227
    1   3.0843286   3.0845022   3.5798696   3.7575680   3.7579078
 SCF time:   CPU 115.56s  wall 117.00s 
 SCF   energy in the final basis set =     -497.3742775867
 Total energy in the final basis set =     -497.3742775867
 mp2 is not implemented in computing transition properties!


 ------------------------------------------------------------------------------

   CCMAN2: suite of methods based on coupled cluster
           and equation of motion theories.

   Components:
   * libvmm-1.3-trunk
     by Evgeny Epifanovsky, Ilya Kaliman.
   * libtensor-2.5-trunk
     by Evgeny Epifanovsky, Michael Wormit, Dmitry Zuev, Sam Manzer, 
        Ilya Kaliman.
   * libcc-2.5-trunk
     by Evgeny Epifanovsky, Arik Landau, Tomasz Kus, Kirill Khistyaev, 
        Dmitry Zuev, Prashant Manohar, Xintian Feng, Anna Krylov, 
        Matthew Goldey, Alec White, Thomas Jagau, Kaushik Nanda, 
        Anastasia Gunina, Alexander Kunitsa, Joonho Lee.

   CCMAN original authors:
   Anna I. Krylov, C. David Sherrill, Steven R. Gwaltney,
   Edward F. C. Byrd (2000)
   Sergey V. Levchenko, Lyudmila V. Slipchenko, Tao Wang,
   Ana-Maria C. Cristian (2003)
   Piotr A. Pieniazek, C. Melania Oana, Evgeny Epifanovsky (2007)
   Prashant Manohar (2009)

 ------------------------------------------------------------------------------


 Allocating and initializing 72000MB of RAM...
 Calculation will run on 1 core.

 
 Alpha MOs, Restricted
 -- Occupied --                  
-11.438 -11.438 -11.438 -11.438 -11.438 -11.438 -11.415 -11.411
  1 A     2 A     3 A     4 A     5 A     6 A     7 A     8 A                  
-11.411 -11.411 -11.398 -11.398 -11.398  -1.369  -1.295  -1.295
  9 A    10 A    11 A    12 A    13 A    14 A    15 A    16 A                  
 -1.197  -1.197  -1.182  -1.089  -1.023  -1.006  -1.006  -0.885
 17 A    18 A    19 A    20 A    21 A    22 A    23 A    24 A                  
 -0.885  -0.865  -0.865  -0.821  -0.773  -0.773  -0.768  -0.735
 25 A    26 A    27 A    28 A    29 A    30 A    31 A    32 A                  
 -0.718  -0.714  -0.714  -0.709  -0.645  -0.644  -0.620  -0.620
 33 A    34 A    35 A    36 A    37 A    38 A    39 A    40 A                  
 -0.495  -0.488  -0.488
 41 A    42 A    43 A                                                          
 -- Virtual --                   
 -0.170  -0.042  -0.023  -0.023   0.041   0.062   0.062   0.088
 44 A    45 A    46 A    47 A    48 A    49 A    50 A    51 A                  
  0.088   0.113   0.121   0.121   0.133   0.154   0.155   0.235
 52 A    53 A    54 A    55 A    56 A    57 A    58 A    59 A                  
  0.256   0.256   0.270   0.294   0.294   0.323   0.325   0.325
 60 A    61 A    62 A    63 A    64 A    65 A    66 A    67 A                  
  0.338   0.423   0.423   0.483   0.499   0.507   0.512   0.512
 68 A    69 A    70 A    71 A    72 A    73 A    74 A    75 A                  
  0.512   0.526   0.526   0.529   0.529   0.571   0.571   0.572
 76 A    77 A    78 A    79 A    80 A    81 A    82 A    83 A                  
  0.579   0.579   0.586   0.586   0.586   0.602   0.605   0.620
 84 A    85 A    86 A    87 A    88 A    89 A    90 A    91 A                  
  0.620   0.650   0.656   0.696   0.696   0.716   0.716   0.738
 92 A    93 A    94 A    95 A    96 A    97 A    98 A    99 A                  
  0.748   0.759   0.759   0.761   0.761   0.790   0.830   0.830
100 A   101 A   102 A   103 A   104 A   105 A   106 A   107 A                  
  0.893   0.895   0.895   0.928   0.934   0.934   0.979   0.979
108 A   109 A   110 A   111 A   112 A   113 A   114 A   115 A                  
  0.981   0.995   1.011   1.011   1.012   1.014   1.023   1.049
116 A   117 A   118 A   119 A   120 A   121 A   122 A   123 A                  
  1.049   1.078   1.078   1.092   1.110   1.110   1.141   1.141
124 A   125 A   126 A   127 A   128 A   129 A   130 A   131 A                  
  1.170   1.170   1.192   1.194   1.194   1.236   1.278   1.404
132 A   133 A   134 A   135 A   136 A   137 A   138 A   139 A                  
  1.404   1.410   1.471   1.471   1.477   1.489   1.489   1.552
140 A   141 A   142 A   143 A   144 A   145 A   146 A   147 A                  
  1.552   1.553   1.556   1.594   1.594   1.636   1.636   1.642
148 A   149 A   150 A   151 A   152 A   153 A   154 A   155 A                  
  1.700   1.709   1.724   1.724   1.735   1.739   1.739   1.762
156 A   157 A   158 A   159 A   160 A   161 A   162 A   163 A                  
  1.764   1.792   1.792   1.796   1.796   1.825   1.825   1.873
164 A   165 A   166 A   167 A   168 A   169 A   170 A   171 A                  
  1.873   1.899   1.913   1.920   1.920   1.931   1.931   1.965
172 A   173 A   174 A   175 A   176 A   177 A   178 A   179 A                  
  1.966   1.977   1.977   1.984   1.986   1.986   2.008   2.029
180 A   181 A   182 A   183 A   184 A   185 A   186 A   187 A                  
  2.029   2.029   2.137   2.137   2.196   2.196   2.219   2.226
188 A   189 A   190 A   191 A   192 A   193 A   194 A   195 A                  
  2.240   2.249   2.249   2.249   2.287   2.287   2.388   2.388
196 A   197 A   198 A   199 A   200 A   201 A   202 A   203 A                  
  2.392   2.503   2.503   2.521   2.579   2.579   2.663   2.684
204 A   205 A   206 A   207 A   208 A   209 A   210 A   211 A                  
  2.684   2.754   2.756   2.756   2.871   2.871   2.873   2.944
212 A   213 A   214 A   215 A   216 A   217 A   218 A   219 A                  
  2.959   3.026   3.026   3.084   3.085   3.580   3.758   3.758
220 A   221 A   222 A   223 A   224 A   225 A   226 A   227 A                  
 
 Beta MOs, Restricted
 -- Occupied --                  
-11.438 -11.438 -11.438 -11.438 -11.438 -11.438 -11.415 -11.411
  1 A     2 A     3 A     4 A     5 A     6 A     7 A     8 A                  
-11.411 -11.411 -11.398 -11.398 -11.398  -1.369  -1.295  -1.295
  9 A    10 A    11 A    12 A    13 A    14 A    15 A    16 A                  
 -1.197  -1.197  -1.182  -1.089  -1.023  -1.006  -1.006  -0.885
 17 A    18 A    19 A    20 A    21 A    22 A    23 A    24 A                  
 -0.885  -0.865  -0.865  -0.821  -0.773  -0.773  -0.768  -0.735
 25 A    26 A    27 A    28 A    29 A    30 A    31 A    32 A                  
 -0.718  -0.714  -0.714  -0.709  -0.645  -0.644  -0.620  -0.620
 33 A    34 A    35 A    36 A    37 A    38 A    39 A    40 A                  
 -0.495  -0.488  -0.488
 41 A    42 A    43 A                                                          
 -- Virtual --                   
 -0.170  -0.042  -0.023  -0.023   0.041   0.062   0.062   0.088
 44 A    45 A    46 A    47 A    48 A    49 A    50 A    51 A                  
  0.088   0.113   0.121   0.121   0.133   0.154   0.155   0.235
 52 A    53 A    54 A    55 A    56 A    57 A    58 A    59 A                  
  0.256   0.256   0.270   0.294   0.294   0.323   0.325   0.325
 60 A    61 A    62 A    63 A    64 A    65 A    66 A    67 A                  
  0.338   0.423   0.423   0.483   0.499   0.507   0.512   0.512
 68 A    69 A    70 A    71 A    72 A    73 A    74 A    75 A                  
  0.512   0.526   0.526   0.529   0.529   0.571   0.571   0.572
 76 A    77 A    78 A    79 A    80 A    81 A    82 A    83 A                  
  0.579   0.579   0.586   0.586   0.586   0.602   0.605   0.620
 84 A    85 A    86 A    87 A    88 A    89 A    90 A    91 A                  
  0.620   0.650   0.656   0.696   0.696   0.716   0.716   0.738
 92 A    93 A    94 A    95 A    96 A    97 A    98 A    99 A                  
  0.748   0.759   0.759   0.761   0.761   0.790   0.830   0.830
100 A   101 A   102 A   103 A   104 A   105 A   106 A   107 A                  
  0.893   0.895   0.895   0.928   0.934   0.934   0.979   0.979
108 A   109 A   110 A   111 A   112 A   113 A   114 A   115 A                  
  0.981   0.995   1.011   1.011   1.012   1.014   1.023   1.049
116 A   117 A   118 A   119 A   120 A   121 A   122 A   123 A                  
  1.049   1.078   1.078   1.092   1.110   1.110   1.141   1.141
124 A   125 A   126 A   127 A   128 A   129 A   130 A   131 A                  
  1.170   1.170   1.192   1.194   1.194   1.236   1.278   1.404
132 A   133 A   134 A   135 A   136 A   137 A   138 A   139 A                  
  1.404   1.410   1.471   1.471   1.477   1.489   1.489   1.552
140 A   141 A   142 A   143 A   144 A   145 A   146 A   147 A                  
  1.552   1.553   1.556   1.594   1.594   1.636   1.636   1.642
148 A   149 A   150 A   151 A   152 A   153 A   154 A   155 A                  
  1.700   1.709   1.724   1.724   1.735   1.739   1.739   1.762
156 A   157 A   158 A   159 A   160 A   161 A   162 A   163 A                  
  1.764   1.792   1.792   1.796   1.796   1.825   1.825   1.873
164 A   165 A   166 A   167 A   168 A   169 A   170 A   171 A                  
  1.873   1.899   1.913   1.920   1.920   1.931   1.931   1.965
172 A   173 A   174 A   175 A   176 A   177 A   178 A   179 A                  
  1.966   1.977   1.977   1.984   1.986   1.986   2.008   2.029
180 A   181 A   182 A   183 A   184 A   185 A   186 A   187 A                  
  2.029   2.029   2.137   2.137   2.196   2.196   2.219   2.226
188 A   189 A   190 A   191 A   192 A   193 A   194 A   195 A                  
  2.240   2.249   2.249   2.249   2.287   2.287   2.388   2.388
196 A   197 A   198 A   199 A   200 A   201 A   202 A   203 A                  
  2.392   2.503   2.503   2.521   2.579   2.579   2.663   2.684
204 A   205 A   206 A   207 A   208 A   209 A   210 A   211 A                  
  2.684   2.754   2.756   2.756   2.871   2.871   2.873   2.944
212 A   213 A   214 A   215 A   216 A   217 A   218 A   219 A                  
  2.959   3.026   3.026   3.084   3.085   3.580   3.758   3.758
220 A   221 A   222 A   223 A   224 A   225 A   226 A   227 A                  

 Occupation and symmetry of molecular orbitals

 Point group: C1 (1 irreducible representation).

                           A     All 
 -------------------------------------
 All molecular orbitals:
  - Alpha                  227   227 
  - Beta                   227   227 
 -------------------------------------
 Alpha orbitals:
  - Frozen occupied        13    13  
  - Active occupied        30    30  
  - Active virtual         184   184 
  - Frozen virtual         0     0   
 -------------------------------------
 Beta orbitals:
  - Frozen occupied        13    13  
  - Active occupied        30    30  
  - Active virtual         184   184 
  - Frozen virtual         0     0   
 -------------------------------------

 Import integrals:   CPU 0.00 s  wall 0.00 s

 Import integrals:   CPU 106.81 s  wall 108.29 s

 Computing CCSD intermediates for later calculations in double precision
 Finished.

 MP2 amplitudes:   CPU 429.52 s  wall 430.74 s

        Solving for EOMEA-CCSD/MP2 A transitions.

Running a double precision version
      EOMEA-CCSD/MP2 right amplitudes will be solved using Davidson.
        Amplitudes will be solved using standard  algorithm.
     Hard-coded thresholds: 
     LinDepThresh=1.00e-15  NormThresh=1.00e-06  ReorthogonThresh=1.00e-02

      Roots     MaxVec    MaxIter   Precond   Conv      Shift    
      30        120       60        1         1.00e-05  0.00e+00  
 ------------------------------------------------------------------------------
      Iter ConvRoots NVecs ResNorm^2 Current eigenvalues (eV)
 ------------------------------------------------------------------------------
      0    0      30    1.34e-01   -2.9913   0.2465   0.5984   0.5991   1.3977   1.9571   1.9574   2.6378   2.6386   3.2841   3.8585   4.0955   4.0970   4.4451   4.4458   6.8910   7.4407   7.4416   8.0219   8.6256   8.6286   9.4348   9.5738   9.5769   9.5833   11.9675   11.9690   13.6101   13.8619   14.2936   
      1    0      60    3.48e-02   -5.1750   -1.9281   -1.6606   -1.6599   0.3509   0.9886   0.9894   1.6652   1.6659   1.7439   1.7453   2.3545   2.8834   3.4464   3.4468   5.1531   5.3784   5.6914   5.6923   6.6369   6.6388   7.2521   7.2546   7.3209   8.0683   10.0854   10.0868   11.1738   11.4474   11.9337   
      2    0      90    2.09e-03   -5.8986   -2.6527   -2.5115   -2.5107   -0.1687   0.4609   0.4619   0.6748   0.6760   1.1378   1.1385   1.8522   2.3350   2.8847   2.8851   4.0698   4.4049   4.8955   4.8966   5.8527   5.8544   6.3602   6.3626   6.5072   7.3066   9.2274   9.2288   10.1779   10.3984   10.7939   
      3    0      120   1.14e-03   -5.9235   -2.6806   -2.5623   -2.5615   -0.1830   0.4440   0.4450   0.5704   0.5718   1.1190   1.1198   1.8325   2.3110   2.8608   2.8612   3.6477   4.3614   4.6926   4.8458   4.8469   5.8120   5.8138   6.3154   6.3179   6.4683   7.2487   9.1660   9.1673   10.0317   10.6214   
      4    3      60    4.87e-04   -5.9250   -2.6826   -2.5704   -2.5695   -0.1836*  0.4432*  0.4442*  0.5551   0.5565   1.1184   1.1192   1.8328   2.3088   2.8601   2.8606   3.3919   4.3363   4.3645   4.8472   4.8484   5.8132   5.8150   6.3129   6.3154   6.4679   7.2494   9.1435   9.1450   9.9978   10.4035   
      5    11     87    7.58e-03   -5.9252*  -2.6835*  -2.5725   -2.5716   -0.1837*  0.4430*  0.4441*  0.5534   0.5549   1.1169*  1.1176*  1.8311*  2.3071*  2.8580*  2.8585*  3.3280   4.2403   4.3575   4.6154   4.8384   4.8396   5.3738   5.8048   5.8066   6.2982   6.3008   6.4615   7.2333   8.9312   9.0421   
      6    15     106   2.45e-03   -5.9252*  -2.6833*  -2.5721*  -2.5713*  -0.1836*  0.4430*  0.4441*  0.5463   0.5478   1.1170*  1.1177*  1.8312*  2.3070*  2.8583*  2.8587*  3.3090   3.4336   3.4744   4.2382   4.3595*  4.8407   4.8419   5.8083   5.8101   6.3036   6.3075   6.4634*  7.2372   7.5411   7.5590   
      7    20     120   1.75e-03   -5.9252*  -2.6834*  -2.5722*  -2.5714*  -0.1836*  0.4430*  0.4441*  0.5479*  0.5487*  1.1169*  1.1177*  1.8316*  2.3071*  2.8585*  2.8589*  3.3103   3.3370   3.3736   4.2268   4.3596*  4.8408*  4.8425*  5.8041   5.8059*  5.8402   5.9712   6.2785   6.2822   6.4634*  6.6945   
      8    20     40    5.27e-04   -5.9252*  -2.6833*  -2.5722*  -2.5714*  -0.1836*  0.4430*  0.4441*  0.5464*  0.5479*  1.1169*  1.1177*  1.8316*  2.3071*  2.8585*  2.8589*  3.3091   3.3268   3.3325   4.2276   4.3595*  4.8409*  4.8424*  5.4218   5.5392   5.8068*  5.8073*  6.2831   6.2919   6.4634   6.4967   
      9    22     50    2.23e-04   -5.9252*  -2.6834*  -2.5722*  -2.5714*  -0.1836*  0.4430*  0.4440*  0.5462*  0.5476*  1.1169*  1.1177*  1.8316*  2.3071*  2.8585*  2.8590*  3.3080*  3.3172   3.3192   4.2285   4.3590*  4.8405*  4.8424*  5.3345   5.3830   5.8055*  5.8062*  6.2589   6.2798   6.4351   6.4625*  
      10   22     58    8.44e-05   -5.9252*  -2.6834*  -2.5722*  -2.5714*  -0.1836*  0.4430*  0.4441*  0.5462*  0.5476*  1.1169*  1.1177*  1.8316*  2.3073*  2.8585*  2.8590*  3.3081*  3.3151   3.3158   4.2280   4.3590*  4.8408*  4.8425*  5.3106   5.3252   5.8058*  5.8072*  6.2508   6.2805   6.3841   6.4622*  
      11   23     66    4.34e-05   -5.9252*  -2.6834*  -2.5722*  -2.5714*  -0.1836*  0.4430*  0.4440*  0.5461*  0.5476*  1.1169*  1.1179*  1.8316*  2.3074*  2.8585*  2.8591*  3.3081*  3.3145   3.3155   4.2273*  4.3590*  4.8403*  4.8418*  5.2993   5.3058   5.8052*  5.8061*  6.2414   6.2772   6.3695   6.4622*  
      12   23     73    3.57e-05   -5.9252*  -2.6834*  -2.5722*  -2.5714*  -0.1836*  0.4430*  0.4440*  0.5461*  0.5476*  1.1169*  1.1179*  1.8316*  2.3074*  2.8587*  2.8590*  3.3080*  3.3144   3.3151   4.2275*  4.3590*  4.8404*  4.8417*  5.2950   5.3002   5.8056*  5.8071*  6.2280   6.2551   6.3649   6.4622*  
      13   22     80    6.09e-05   -5.9252*  -2.6834*  -2.5722*  -2.5714*  -0.1836*  0.4430*  0.4440*  0.5461*  0.5476*  1.1171*  1.1179*  1.8316*  2.3074*  2.8585*  2.8591*  3.3080*  3.3143   3.3149   4.2275*  4.3590*  4.8403*  4.8416*  5.2931   5.2953   5.8053*  5.8064*  6.2279   6.2493   6.3545   6.4178   
      14   25     88    3.57e-05   -5.9252*  -2.6834*  -2.5722*  -2.5714*  -0.1836*  0.4430*  0.4440*  0.5461*  0.5476*  1.1172*  1.1179*  1.8316*  2.3074*  2.8587*  2.8591*  3.3080*  3.3142*  3.3149   4.2275*  4.3590*  4.8403*  4.8416*  5.2923*  5.2944*  5.8054*  5.8067*  6.2247   6.2332   6.3555   6.3784   
      15   25     93    1.49e-05   -5.9252*  -2.6834*  -2.5722*  -2.5714*  -0.1836*  0.4430*  0.4440*  0.5461*  0.5476*  1.1172*  1.1179*  1.8316*  2.3074*  2.8587*  2.8591*  3.3080*  3.3142*  3.3149   4.2275*  4.3590*  4.8403*  4.8416*  5.2923*  5.2945*  5.8053*  5.8066*  6.2244   6.2269   6.3538   6.3569   
      16   27     98    1.54e-05   -5.9252*  -2.6834*  -2.5722*  -2.5714*  -0.1836*  0.4429*  0.4439*  0.5461*  0.5476*  1.1172*  1.1179*  1.8316*  2.3074*  2.8587*  2.8591*  3.3080*  3.3142*  3.3148*  4.2275*  4.3590*  4.8403*  4.8416*  5.2923*  5.2944*  5.8053*  5.8066*  6.2201   6.2235   6.3514   6.3541*  
      17   26     101   7.12e-04   -5.9252*  -2.6834*  -2.5722*  -2.5714*  -0.1837*  0.4429*  0.4439*  0.5461*  0.5476*  1.1172*  1.1179*  1.8316*  2.3074*  2.8587*  2.8591*  3.3080*  3.3142*  3.3148*  4.2275*  4.3590*  4.8403*  4.8417*  5.2922*  5.2944*  5.8053*  5.8066*  6.0409   6.2232   6.2425   6.3529   
      18   24     105   5.04e-04   -5.9252*  -2.6834*  -2.5722*  -2.5714*  -0.1837*  0.4429*  0.4438*  0.5461*  0.5476*  1.1172*  1.1179*  1.8316*  2.3074*  2.8587*  2.8591*  3.3080*  3.3142*  3.3148*  4.2275*  4.3590*  4.8403*  4.8417*  5.2833   5.2923   5.2952   5.8053*  5.8066*  6.1906   6.2223   6.2274   
      19   25     111   4.41e-04   -5.9252*  -2.6834*  -2.5722*  -2.5714*  -0.1837*  0.4429*  0.4438*  0.5462*  0.5476*  1.1172*  1.1179*  1.8316*  2.3074*  2.8587*  2.8591*  3.3080*  3.3142*  3.3148*  4.2275*  4.3591*  4.8403*  4.8417*  4.9907   5.2920*  5.2942*  5.8053*  5.8066   5.8268   6.2215   6.2264   
      20   25     116   1.51e-03   -5.9252*  -2.6834*  -2.5722*  -2.5714*  -0.1836*  0.4429*  0.4438*  0.5462*  0.5476*  1.1172*  1.1179*  1.8316*  2.3074*  2.8587*  2.8591*  3.3080*  3.3142*  3.3148*  4.2275*  4.3591*  4.6801   4.8403*  4.8416*  5.0013   5.2920   5.2942*  5.5757   5.8053*  5.8071*  6.2225   
      21   27     120   7.24e-04   -5.9252*  -2.6834*  -2.5722*  -2.5714*  -0.1836*  0.4429*  0.4438*  0.5462*  0.5476*  1.1172*  1.1179*  1.8316*  2.3074*  2.8587*  2.8591*  3.3080*  3.3142*  3.3149*  3.7163   4.2275*  4.3591*  4.7862   4.8403*  4.8416*  4.9588   5.2920*  5.2942*  5.8053*  5.8070*  6.2219*  
      22   27     33    1.86e-04   -5.9252*  -2.6834*  -2.5722*  -2.5714*  -0.1836*  0.4428*  0.4438*  0.5462*  0.5476*  1.1172*  1.1179*  1.8316*  2.3074*  2.8587*  2.8590*  3.3080*  3.3142*  3.3148*  3.4386   4.2275*  4.3591*  4.6108   4.8403*  4.8417*  4.9402   5.2919*  5.2942*  5.8053*  5.8070*  6.2219*  
      23   27     36    1.46e-04   -5.9252*  -2.6834*  -2.5722*  -2.5714*  -0.1836*  0.4428*  0.4438*  0.5462*  0.5476*  1.1172*  1.1179*  1.8316*  2.3074*  2.8587*  2.8590*  3.3080*  3.3142*  3.3148*  3.3216   4.2275*  4.3591*  4.5483   4.8403*  4.8416*  4.9342   5.2919*  5.2942*  5.8053*  5.8070*  6.2217*  
      24   27     39    1.04e-04   -5.9252*  -2.6834*  -2.5722*  -2.5714*  -0.1836*  0.4428*  0.4438*  0.5461*  0.5476*  1.1172*  1.1179*  1.8316*  2.3074*  2.8587*  2.8590*  3.3080*  3.3107   3.3142*  3.3148*  4.2275*  4.3591*  4.4976   4.8403*  4.8417*  4.9331   5.2919*  5.2942*  5.8053*  5.8070*  6.2218*  
      25   27     42    5.99e-05   -5.9252*  -2.6834*  -2.5722*  -2.5714*  -0.1836*  0.4428*  0.4438*  0.5462*  0.5476*  1.1172*  1.1179*  1.8316*  2.3074*  2.8587*  2.8590*  3.2923   3.3080*  3.3142*  3.3148*  4.2275*  4.3591*  4.4758   4.8403*  4.8416*  4.9318   5.2919*  5.2942*  5.8053*  5.8070*  6.2218*  
      26   27     45    3.34e-05   -5.9252*  -2.6834*  -2.5722*  -2.5714*  -0.1836*  0.4428*  0.4438*  0.5462*  0.5476*  1.1172*  1.1179*  1.8316*  2.3074*  2.8586*  2.8590*  3.2872   3.3080*  3.3142*  3.3148*  4.2275*  4.3591*  4.4547   4.8403*  4.8416*  4.9315   5.2919*  5.2942*  5.8053*  5.8070*  6.2218*  
      27   28     48    2.79e-05   -5.9252*  -2.6834*  -2.5722*  -2.5714*  -0.1836*  0.4428*  0.4438*  0.5462*  0.5476*  1.1172*  1.1179*  1.8316*  2.3074*  2.8586*  2.8590*  3.2845   3.3080*  3.3142*  3.3148*  4.2275*  4.3591*  4.4480   4.8403*  4.8416*  4.9312*  5.2919*  5.2942*  5.8054*  5.8070*  6.2218*  
      28   28     50    2.30e-05   -5.9252*  -2.6834*  -2.5722*  -2.5714*  -0.1836*  0.4428*  0.4438*  0.5462*  0.5476*  1.1172*  1.1180*  1.8316*  2.3074*  2.8586*  2.8590*  3.2831   3.3080*  3.3142*  3.3148*  4.2275*  4.3591*  4.4445   4.8403*  4.8416*  4.9312*  5.2919*  5.2942*  5.8054*  5.8070*  6.2218*  
      29   28     52    1.64e-05   -5.9252*  -2.6834*  -2.5722*  -2.5714*  -0.1836*  0.4428*  0.4438*  0.5462*  0.5476*  1.1172*  1.1180*  1.8316*  2.3074*  2.8586*  2.8590*  3.2804   3.3080*  3.3142*  3.3148*  4.2275*  4.3591*  4.4381   4.8404*  4.8416*  4.9312*  5.2919*  5.2942*  5.8053*  5.8070*  6.2218*  
      30   28     54    1.48e-05   -5.9252*  -2.6834*  -2.5722*  -2.5714*  -0.1836*  0.4428*  0.4438*  0.5462*  0.5476*  1.1172*  1.1180*  1.8316*  2.3074*  2.8586*  2.8590*  3.2803   3.3080*  3.3142*  3.3148*  4.2275*  4.3590*  4.4355   4.8404*  4.8417*  4.9312*  5.2919*  5.2942*  5.8053*  5.8070*  6.2218*  
      31   28     56    1.36e-05   -5.9252*  -2.6834*  -2.5722*  -2.5714*  -0.1836*  0.4427*  0.4437*  0.5462*  0.5476*  1.1172*  1.1180*  1.8316*  2.3074*  2.8586*  2.8590*  3.2801   3.3080*  3.3142*  3.3148*  4.2275*  4.3590*  4.4346   4.8404*  4.8417*  4.9311*  5.2919*  5.2942*  5.8053*  5.8070*  6.2218*  
      32   29     58    1.32e-05   -5.9252*  -2.6834*  -2.5722*  -2.5714*  -0.1836*  0.4427*  0.4437*  0.5462*  0.5476*  1.1172*  1.1180*  1.8316*  2.3074*  2.8586*  2.8590*  3.2798   3.3080*  3.3142*  3.3148*  4.2275*  4.3590*  4.4343*  4.8403*  4.8417*  4.9311*  5.2919*  5.2942*  5.8053*  5.8070*  6.2218*  
      33   29     59    1.32e-05   -5.9252*  -2.6834*  -2.5722*  -2.5714*  -0.1836*  0.4427*  0.4437*  0.5462*  0.5476*  1.1172*  1.1180*  1.8316*  2.3074*  2.8586*  2.8590*  3.2798   3.3080*  3.3142*  3.3148*  4.2275*  4.3590*  4.4342*  4.8403*  4.8417*  4.9311*  5.2919*  5.2942*  5.8053*  5.8070*  6.2218*  
      34   29     59    1.32e-05   -5.9252*  -2.6834*  -2.5722*  -2.5714*  -0.1836*  0.4427*  0.4437*  0.5462*  0.5476*  1.1172*  1.1180*  1.8316*  2.3074*  2.8586*  2.8590*  3.2798   3.3080*  3.3142*  3.3148*  4.2275*  4.3590*  4.4342*  4.8403*  4.8417*  4.9311*  5.2919*  5.2942*  5.8053*  5.8070*  6.2218*  
      35   29     59    1.32e-05   -5.9252*  -2.6834*  -2.5722*  -2.5714*  -0.1836*  0.4427*  0.4437*  0.5462*  0.5476*  1.1172*  1.1180*  1.8316*  2.3074*  2.8586*  2.8590*  3.2798   3.3080*  3.3142*  3.3148*  4.2275*  4.3590*  4.4342*  4.8403*  4.8417*  4.9311*  5.2919*  5.2942*  5.8053*  5.8070*  6.2218*  
      36   29     59    1.32e-05   -5.9252*  -2.6834*  -2.5722*  -2.5714*  -0.1836*  0.4427*  0.4437*  0.5462*  0.5476*  1.1172*  1.1180*  1.8316*  2.3074*  2.8586*  2.8590*  3.2798   3.3080*  3.3142*  3.3148*  4.2275*  4.3590*  4.4342*  4.8403*  4.8417*  4.9311*  5.2919*  5.2942*  5.8053*  5.8070*  6.2218*  
      37   29     59    1.32e-05   -5.9252*  -2.6834*  -2.5722*  -2.5714*  -0.1836*  0.4427*  0.4437*  0.5462*  0.5476*  1.1172*  1.1180*  1.8316*  2.3074*  2.8586*  2.8590*  3.2798   3.3080*  3.3142*  3.3148*  4.2275*  4.3590*  4.4342*  4.8403*  4.8417*  4.9311*  5.2919*  5.2942*  5.8053*  5.8070*  6.2218*  
      38   29     59    1.32e-05   -5.9252*  -2.6834*  -2.5722*  -2.5714*  -0.1836*  0.4427*  0.4437*  0.5462*  0.5476*  1.1172*  1.1180*  1.8316*  2.3074*  2.8586*  2.8590*  3.2798   3.3080*  3.3142*  3.3148*  4.2275*  4.3590*  4.4342*  4.8403*  4.8417*  4.9311*  5.2919*  5.2942*  5.8053*  5.8070*  6.2218*  
      39   29     59    1.32e-05   -5.9252*  -2.6834*  -2.5722*  -2.5714*  -0.1836*  0.4427*  0.4437*  0.5462*  0.5476*  1.1172*  1.1180*  1.8316*  2.3074*  2.8586*  2.8590*  3.2798   3.3080*  3.3142*  3.3148*  4.2275*  4.3590*  4.4342*  4.8403*  4.8417*  4.9311*  5.2919*  5.2942*  5.8053*  5.8070*  6.2218*  
      40   29     59    1.32e-05   -5.9252*  -2.6834*  -2.5722*  -2.5714*  -0.1836*  0.4427*  0.4437*  0.5462*  0.5476*  1.1172*  1.1180*  1.8316*  2.3074*  2.8586*  2.8590*  3.2798   3.3080*  3.3142*  3.3148*  4.2275*  4.3590*  4.4342*  4.8403*  4.8417*  4.9311*  5.2919*  5.2942*  5.8053*  5.8070*  6.2218*  
      41   29     59    1.32e-05   -5.9252*  -2.6834*  -2.5722*  -2.5714*  -0.1836*  0.4427*  0.4437*  0.5462*  0.5476*  1.1172*  1.1180*  1.8316*  2.3074*  2.8586*  2.8590*  3.2798   3.3080*  3.3142*  3.3148*  4.2275*  4.3590*  4.4342*  4.8403*  4.8417*  4.9311*  5.2919*  5.2942*  5.8053*  5.8070*  6.2218*  
      42   29     59    1.32e-05   -5.9252*  -2.6834*  -2.5722*  -2.5714*  -0.1836*  0.4427*  0.4437*  0.5462*  0.5476*  1.1172*  1.1180*  1.8316*  2.3074*  2.8586*  2.8590*  3.2798   3.3080*  3.3142*  3.3148*  4.2275*  4.3590*  4.4342*  4.8403*  4.8417*  4.9311*  5.2919*  5.2942*  5.8053*  5.8070*  6.2218*  
      43   29     59    1.32e-05   -5.9252*  -2.6834*  -2.5722*  -2.5714*  -0.1836*  0.4427*  0.4437*  0.5462*  0.5476*  1.1172*  1.1180*  1.8316*  2.3074*  2.8586*  2.8590*  3.2798   3.3080*  3.3142*  3.3148*  4.2275*  4.3590*  4.4342*  4.8403*  4.8417*  4.9311*  5.2919*  5.2942*  5.8053*  5.8070*  6.2218*  
      44   29     59    1.32e-05   -5.9252*  -2.6834*  -2.5722*  -2.5714*  -0.1836*  0.4427*  0.4437*  0.5462*  0.5476*  1.1172*  1.1180*  1.8316*  2.3074*  2.8586*  2.8590*  3.2798   3.3080*  3.3142*  3.3148*  4.2275*  4.3590*  4.4342*  4.8403*  4.8417*  4.9311*  5.2919*  5.2942*  5.8053*  5.8070*  6.2218*  
      45   29     59    1.32e-05   -5.9252*  -2.6834*  -2.5722*  -2.5714*  -0.1836*  0.4427*  0.4437*  0.5462*  0.5476*  1.1172*  1.1180*  1.8316*  2.3074*  2.8586*  2.8590*  3.2798   3.3080*  3.3142*  3.3148*  4.2275*  4.3590*  4.4342*  4.8403*  4.8417*  4.9311*  5.2919*  5.2942*  5.8053*  5.8070*  6.2218*  
      46   29     59    1.32e-05   -5.9252*  -2.6834*  -2.5722*  -2.5714*  -0.1836*  0.4427*  0.4437*  0.5462*  0.5476*  1.1172*  1.1180*  1.8316*  2.3074*  2.8586*  2.8590*  3.2798   3.3080*  3.3142*  3.3148*  4.2275*  4.3590*  4.4342*  4.8403*  4.8417*  4.9311*  5.2919*  5.2942*  5.8053*  5.8070*  6.2218*  
      47   29     59    1.32e-05   -5.9252*  -2.6834*  -2.5722*  -2.5714*  -0.1836*  0.4427*  0.4437*  0.5462*  0.5476*  1.1172*  1.1180*  1.8316*  2.3074*  2.8586*  2.8590*  3.2798   3.3080*  3.3142*  3.3148*  4.2275*  4.3590*  4.4342*  4.8403*  4.8417*  4.9311*  5.2919*  5.2942*  5.8053*  5.8070*  6.2218*  
      48   29     59    1.32e-05   -5.9252*  -2.6834*  -2.5722*  -2.5714*  -0.1836*  0.4427*  0.4437*  0.5462*  0.5476*  1.1172*  1.1180*  1.8316*  2.3074*  2.8586*  2.8590*  3.2798   3.3080*  3.3142*  3.3148*  4.2275*  4.3590*  4.4342*  4.8403*  4.8417*  4.9311*  5.2919*  5.2942*  5.8053*  5.8070*  6.2218*  
      49   29     59    1.32e-05   -5.9252*  -2.6834*  -2.5722*  -2.5714*  -0.1836*  0.4427*  0.4437*  0.5462*  0.5476*  1.1172*  1.1180*  1.8316*  2.3074*  2.8586*  2.8590*  3.2798   3.3080*  3.3142*  3.3148*  4.2275*  4.3590*  4.4342*  4.8403*  4.8417*  4.9311*  5.2919*  5.2942*  5.8053*  5.8070*  6.2218*  
      50   29     59    1.32e-05   -5.9252*  -2.6834*  -2.5722*  -2.5714*  -0.1836*  0.4427*  0.4437*  0.5462*  0.5476*  1.1172*  1.1180*  1.8316*  2.3074*  2.8586*  2.8590*  3.2798   3.3080*  3.3142*  3.3148*  4.2275*  4.3590*  4.4342*  4.8403*  4.8417*  4.9311*  5.2919*  5.2942*  5.8053*  5.8070*  6.2218*  
      51   29     59    1.32e-05   -5.9252*  -2.6834*  -2.5722*  -2.5714*  -0.1836*  0.4427*  0.4437*  0.5462*  0.5476*  1.1172*  1.1180*  1.8316*  2.3074*  2.8586*  2.8590*  3.2798   3.3080*  3.3142*  3.3148*  4.2275*  4.3590*  4.4342*  4.8403*  4.8417*  4.9311*  5.2919*  5.2942*  5.8053*  5.8070*  6.2218*  
      52   29     59    1.32e-05   -5.9252*  -2.6834*  -2.5722*  -2.5714*  -0.1836*  0.4427*  0.4437*  0.5462*  0.5476*  1.1172*  1.1180*  1.8316*  2.3074*  2.8586*  2.8590*  3.2798   3.3080*  3.3142*  3.3148*  4.2275*  4.3590*  4.4342*  4.8403*  4.8417*  4.9311*  5.2919*  5.2942*  5.8053*  5.8070*  6.2218*  
      53   29     59    1.32e-05   -5.9252*  -2.6834*  -2.5722*  -2.5714*  -0.1836*  0.4427*  0.4437*  0.5462*  0.5476*  1.1172*  1.1180*  1.8316*  2.3074*  2.8586*  2.8590*  3.2798   3.3080*  3.3142*  3.3148*  4.2275*  4.3590*  4.4342*  4.8403*  4.8417*  4.9311*  5.2919*  5.2942*  5.8053*  5.8070*  6.2218*  
      54   29     59    1.32e-05   -5.9252*  -2.6834*  -2.5722*  -2.5714*  -0.1836*  0.4427*  0.4437*  0.5462*  0.5476*  1.1172*  1.1180*  1.8316*  2.3074*  2.8586*  2.8590*  3.2798   3.3080*  3.3142*  3.3148*  4.2275*  4.3590*  4.4342*  4.8403*  4.8417*  4.9311*  5.2919*  5.2942*  5.8053*  5.8070*  6.2218*  
      55   29     59    1.32e-05   -5.9252*  -2.6834*  -2.5722*  -2.5714*  -0.1836*  0.4427*  0.4437*  0.5462*  0.5476*  1.1172*  1.1180*  1.8316*  2.3074*  2.8586*  2.8590*  3.2798   3.3080*  3.3142*  3.3148*  4.2275*  4.3590*  4.4342*  4.8403*  4.8417*  4.9311*  5.2919*  5.2942*  5.8053*  5.8070*  6.2218*  
      56   29     59    1.32e-05   -5.9252*  -2.6834*  -2.5722*  -2.5714*  -0.1836*  0.4427*  0.4437*  0.5462*  0.5476*  1.1172*  1.1180*  1.8316*  2.3074*  2.8586*  2.8590*  3.2798   3.3080*  3.3142*  3.3148*  4.2275*  4.3590*  4.4342*  4.8403*  4.8417*  4.9311*  5.2919*  5.2942*  5.8053*  5.8070*  6.2218*  
      57   29     59    1.32e-05   -5.9252*  -2.6834*  -2.5722*  -2.5714*  -0.1836*  0.4427*  0.4437*  0.5462*  0.5476*  1.1172*  1.1180*  1.8316*  2.3074*  2.8586*  2.8590*  3.2798   3.3080*  3.3142*  3.3148*  4.2275*  4.3590*  4.4342*  4.8403*  4.8417*  4.9311*  5.2919*  5.2942*  5.8053*  5.8070*  6.2218*  
      58   29     59    1.32e-05   -5.9252*  -2.6834*  -2.5722*  -2.5714*  -0.1836*  0.4427*  0.4437*  0.5462*  0.5476*  1.1172*  1.1180*  1.8316*  2.3074*  2.8586*  2.8590*  3.2798   3.3080*  3.3142*  3.3148*  4.2275*  4.3590*  4.4342*  4.8403*  4.8417*  4.9311*  5.2919*  5.2942*  5.8053*  5.8070*  6.2218*  
      59   29     59    1.32e-05   -5.9252*  -2.6834*  -2.5722*  -2.5714*  -0.1836*  0.4427*  0.4437*  0.5462*  0.5476*  1.1172*  1.1180*  1.8316*  2.3074*  2.8586*  2.8590*  3.2798   3.3080*  3.3142*  3.3148*  4.2275*  4.3590*  4.4342*  4.8403*  4.8417*  4.9311*  5.2919*  5.2942*  5.8053*  5.8070*  6.2218*  

     Max Davidson iteration exhausted

 EOMEA transition 1/A
 Total energy = -499.23885828 a.u.  Excitation energy = -5.9252 eV.
 R1^2 = 0.9314  R2^2 = 0.0686  Res^2 = 1.66e-06
 Conv-d = yes

 Amplitude    Transitions between orbitals
  0.9641       infty       ->    44 (A) B                   
 -0.0400       infty       ->    93 (A) B                   
  0.0122       infty       ->    127 (A) B                  
 -0.0074       infty       ->    157 (A) B                  

              Summary of significant orbitals:

               Number  Type             Irrep      Energy
               44      Vir  Beta       44 (A)     -0.1704
               93      Vir  Beta       93 (A)      0.6499
               127     Vir  Beta      127 (A)      1.0924
               157     Vir  Beta      157 (A)      1.7086


 EOMEA transition 2/A
 Total energy = -499.11972294 a.u.  Excitation energy = -2.6834 eV.
 R1^2 = 0.9322  R2^2 = 0.0678  Res^2 = 6.61e-07
 Conv-d = yes

 Amplitude    Transitions between orbitals
 -0.9639       infty       ->    45 (A) B                   
  0.0506       infty       ->    94 (A) B                   
  0.0185       infty       ->    108 (A) B                  
 -0.0075       infty       ->    72 (A) B                   

              Summary of significant orbitals:

               Number  Type             Irrep      Energy
               45      Vir  Beta       45 (A)     -0.0422
               72      Vir  Beta       72 (A)      0.4995
               94      Vir  Beta       94 (A)      0.6562
               108     Vir  Beta      108 (A)      0.8925


 EOMEA transition 3/A
 Total energy = -499.11563747 a.u.  Excitation energy = -2.5722 eV.
 R1^2 = 0.9126  R2^2 = 0.0874  Res^2 = 2.64e-07
 Conv-d = yes

 Amplitude    Transitions between orbitals
  0.9506       infty       ->    46 (A) B                   
  0.0725       infty       ->    47 (A) B                   
  0.0487       infty       ->    95 (A) B                   
 -0.0246       infty       ->    84 (A) B                   

              Summary of significant orbitals:

               Number  Type             Irrep      Energy
               46      Vir  Beta       46 (A)     -0.0231
               47      Vir  Beta       47 (A)     -0.0231
               84      Vir  Beta       84 (A)      0.5790
               95      Vir  Beta       95 (A)      0.6960


 EOMEA transition 4/A
 Total energy = -499.11560660 a.u.  Excitation energy = -2.5714 eV.
 R1^2 = 0.9126  R2^2 = 0.0874  Res^2 = 2.63e-07
 Conv-d = yes

 Amplitude    Transitions between orbitals
  0.9505       infty       ->    47 (A) B                   
 -0.0736       infty       ->    46 (A) B                   
  0.0487       infty       ->    96 (A) B                   
  0.0246       infty       ->    85 (A) B                   

              Summary of significant orbitals:

               Number  Type             Irrep      Energy
               46      Vir  Beta       46 (A)     -0.0231
               47      Vir  Beta       47 (A)     -0.0231
               85      Vir  Beta       85 (A)      0.5791
               96      Vir  Beta       96 (A)      0.6960


 EOMEA transition 5/A
 Total energy = -499.02785887 a.u.  Excitation energy = -0.1836 eV.
 R1^2 = 0.9538  R2^2 = 0.0462  Res^2 = 4.35e-06
 Conv-d = yes

 Amplitude    Transitions between orbitals
 -0.9739       infty       ->    48 (A) B                   
 -0.0559       infty       ->    65 (A) B                   
  0.0320       infty       ->    105 (A) B                  
 -0.0262       infty       ->    59 (A) B                   

              Summary of significant orbitals:

               Number  Type             Irrep      Energy
               48      Vir  Beta       48 (A)      0.0410
               59      Vir  Beta       59 (A)      0.2353
               65      Vir  Beta       65 (A)      0.3227
               105     Vir  Beta      105 (A)      0.7902


 EOMEA transition 6/A
 Total energy = -499.00484032 a.u.  Excitation energy = 0.4427 eV.
 R1^2 = 0.9529  R2^2 = 0.0471  Res^2 = 4.04e-06
 Conv-d = yes

 Amplitude    Transitions between orbitals
  0.9658       infty       ->    49 (A) B                   
 -0.0989       infty       ->    50 (A) B                   
  0.0614       infty       ->    51 (A) B                   
 -0.0372       infty       ->    61 (A) B                   

              Summary of significant orbitals:

               Number  Type             Irrep      Energy
               49      Vir  Beta       49 (A)      0.0621
               50      Vir  Beta       50 (A)      0.0621
               51      Vir  Beta       51 (A)      0.0878
               61      Vir  Beta       61 (A)      0.2561


 EOMEA transition 7/A
 Total energy = -499.00480498 a.u.  Excitation energy = 0.4437 eV.
 R1^2 = 0.9529  R2^2 = 0.0471  Res^2 = 4.07e-06
 Conv-d = yes

 Amplitude    Transitions between orbitals
  0.9658       infty       ->    50 (A) B                   
  0.0986       infty       ->    49 (A) B                   
 -0.0616       infty       ->    52 (A) B                   
  0.0371       infty       ->    60 (A) B                   

              Summary of significant orbitals:

               Number  Type             Irrep      Energy
               49      Vir  Beta       49 (A)      0.0621
               50      Vir  Beta       50 (A)      0.0621
               52      Vir  Beta       52 (A)      0.0878
               60      Vir  Beta       60 (A)      0.2560


 EOMEA transition 8/A
 Total energy = -499.00103888 a.u.  Excitation energy = 0.5462 eV.
 R1^2 = 0.8759  R2^2 = 0.1241  Res^2 = 1.26e-06
 Conv-d = yes

 Amplitude    Transitions between orbitals
 -0.9317       infty       ->    54 (A) B                   
  0.0607       infty       ->    103 (A) B                  
 -0.0406       infty       ->    85 (A) B                   
 -0.0323       infty       ->    77 (A) B                   

              Summary of significant orbitals:

               Number  Type             Irrep      Energy
               54      Vir  Beta       54 (A)      0.1208
               77      Vir  Beta       77 (A)      0.5258
               85      Vir  Beta       85 (A)      0.5791
               103     Vir  Beta      103 (A)      0.7605


 EOMEA transition 9/A
 Total energy = -499.00098713 a.u.  Excitation energy = 0.5476 eV.
 R1^2 = 0.8759  R2^2 = 0.1241  Res^2 = 1.25e-06
 Conv-d = yes

 Amplitude    Transitions between orbitals
  0.9312       infty       ->    55 (A) B                   
 -0.0606       infty       ->    104 (A) B                  
 -0.0406       infty       ->    84 (A) B                   
 -0.0349       infty       ->    54 (A) B                   

              Summary of significant orbitals:

               Number  Type             Irrep      Energy
               54      Vir  Beta       54 (A)      0.1208
               55      Vir  Beta       55 (A)      0.1208
               84      Vir  Beta       84 (A)      0.5790
               104     Vir  Beta      104 (A)      0.7606


 EOMEA transition 10/A
 Total energy = -498.98005395 a.u.  Excitation energy = 1.1172 eV.
 R1^2 = 0.9515  R2^2 = 0.0485  Res^2 = 1.54e-06
 Conv-d = yes

 Amplitude    Transitions between orbitals
 -0.9629       infty       ->    51 (A) B                   
 -0.0769       infty       ->    52 (A) B                   
  0.0754       infty       ->    57 (A) B                   
  0.0555       infty       ->    49 (A) B                   

              Summary of significant orbitals:

               Number  Type             Irrep      Energy
               49      Vir  Beta       49 (A)      0.0621
               51      Vir  Beta       51 (A)      0.0878
               52      Vir  Beta       52 (A)      0.0878
               57      Vir  Beta       57 (A)      0.1545


 EOMEA transition 11/A
 Total energy = -498.98002527 a.u.  Excitation energy = 1.1180 eV.
 R1^2 = 0.9515  R2^2 = 0.0485  Res^2 = 1.53e-06
 Conv-d = yes

 Amplitude    Transitions between orbitals
  0.9637       infty       ->    52 (A) B                   
  0.0759       infty       ->    58 (A) B                   
 -0.0660       infty       ->    51 (A) B                   
  0.0564       infty       ->    50 (A) B                   

              Summary of significant orbitals:

               Number  Type             Irrep      Energy
               50      Vir  Beta       50 (A)      0.0621
               51      Vir  Beta       51 (A)      0.0878
               52      Vir  Beta       52 (A)      0.0878
               58      Vir  Beta       58 (A)      0.1545


 EOMEA transition 12/A
 Total energy = -498.95379990 a.u.  Excitation energy = 1.8316 eV.
 R1^2 = 0.9524  R2^2 = 0.0476  Res^2 = 1.97e-06
 Conv-d = yes

 Amplitude    Transitions between orbitals
  0.9688       infty       ->    53 (A) B                   
  0.0817       infty       ->    59 (A) B                   
 -0.0587       infty       ->    65 (A) B                   
  0.0362       infty       ->    71 (A) B                   

              Summary of significant orbitals:

               Number  Type             Irrep      Energy
               53      Vir  Beta       53 (A)      0.1127
               59      Vir  Beta       59 (A)      0.2353
               65      Vir  Beta       65 (A)      0.3227
               71      Vir  Beta       71 (A)      0.4832


 EOMEA transition 13/A
 Total energy = -498.93631415 a.u.  Excitation energy = 2.3074 eV.
 R1^2 = 0.9463  R2^2 = 0.0537  Res^2 = 3.00e-06
 Conv-d = yes

 Amplitude    Transitions between orbitals
 -0.9697       infty       ->    56 (A) B                   
 -0.0661       infty       ->    73 (A) B                   
 -0.0291       infty       ->    99 (A) B                   
  0.0169       infty       ->    68 (A) B                   

              Summary of significant orbitals:

               Number  Type             Irrep      Energy
               56      Vir  Beta       56 (A)      0.1335
               68      Vir  Beta       68 (A)      0.3378
               73      Vir  Beta       73 (A)      0.5065
               99      Vir  Beta       99 (A)      0.7382


 EOMEA transition 14/A
 Total energy = -498.91605753 a.u.  Excitation energy = 2.8586 eV.
 R1^2 = 0.9477  R2^2 = 0.0523  Res^2 = 2.62e-06
 Conv-d = yes

 Amplitude    Transitions between orbitals
  0.9545       infty       ->    57 (A) B                   
 -0.0886       infty       ->    58 (A) B                   
  0.0882       infty       ->    51 (A) B                   
 -0.0814       infty       ->    64 (A) B                   

              Summary of significant orbitals:

               Number  Type             Irrep      Energy
               51      Vir  Beta       51 (A)      0.0878
               57      Vir  Beta       57 (A)      0.1545
               58      Vir  Beta       58 (A)      0.1545
               64      Vir  Beta       64 (A)      0.2944


 EOMEA transition 15/A
 Total energy = -498.91604320 a.u.  Excitation energy = 2.8590 eV.
 R1^2 = 0.9477  R2^2 = 0.0523  Res^2 = 2.55e-06
 Conv-d = yes

 Amplitude    Transitions between orbitals
  0.9581       infty       ->    58 (A) B                   
 -0.0860       infty       ->    52 (A) B                   
 -0.0822       infty       ->    63 (A) B                   
 -0.0638       infty       ->    60 (A) B                   

              Summary of significant orbitals:

               Number  Type             Irrep      Energy
               52      Vir  Beta       52 (A)      0.0878
               58      Vir  Beta       58 (A)      0.1545
               60      Vir  Beta       60 (A)      0.2560
               63      Vir  Beta       63 (A)      0.2943


 EOMEA transition 16/A
 Total energy = -498.90057837 a.u.  Excitation energy = 3.2798 eV.
 R1^2 = 0.0002  R2^2 = 0.9998  Res^2 = 3.11e-04
 Conv-d = no

 Amplitude    Transitions between orbitals
  0.3121       41 (A) B    ->    44 (A) B      45 (A) B     
 -0.3121       41 (A) B    ->    45 (A) B      44 (A) B     
  0.3109       41 (A) A    ->    45 (A) A      44 (A) B     
 -0.3109       41 (A) A    ->    44 (A) B      45 (A) A     
 -0.3102       41 (A) A    ->    44 (A) A      45 (A) B     
  0.3102       41 (A) A    ->    45 (A) B      44 (A) A     
 -0.2282       42 (A) A    ->    44 (A) A      46 (A) B     
  0.2282       42 (A) A    ->    46 (A) B      44 (A) A     
  0.2266       42 (A) B    ->    44 (A) B      46 (A) B     
 -0.2266       42 (A) B    ->    46 (A) B      44 (A) B     
  0.2264       42 (A) A    ->    46 (A) A      44 (A) B     
 -0.2264       42 (A) A    ->    44 (A) B      46 (A) A     
  0.2221       43 (A) B    ->    44 (A) B      47 (A) B     
 -0.2221       43 (A) B    ->    47 (A) B      44 (A) B     
 -0.2214       43 (A) A    ->    44 (A) A      47 (A) B     
  0.2214       43 (A) A    ->    47 (A) B      44 (A) A     
  0.2204       43 (A) A    ->    47 (A) A      44 (A) B     
 -0.2204       43 (A) A    ->    44 (A) B      47 (A) A     
  0.2190       43 (A) A    ->    44 (A) A      46 (A) B     
 -0.2190       43 (A) A    ->    46 (A) B      44 (A) A     
 -0.2182       43 (A) B    ->    44 (A) B      46 (A) B     
  0.2182       43 (A) B    ->    46 (A) B      44 (A) B     
 -0.2171       43 (A) A    ->    46 (A) A      44 (A) B     
  0.2171       43 (A) A    ->    44 (A) B      46 (A) A     
  0.1958       42 (A) A    ->    47 (A) A      44 (A) B     
 -0.1958       42 (A) A    ->    44 (A) B      47 (A) A     
  0.1955       42 (A) B    ->    44 (A) B      47 (A) B     
 -0.1955       42 (A) B    ->    47 (A) B      44 (A) B     
 -0.1954       42 (A) A    ->    44 (A) A      47 (A) B     
  0.1954       42 (A) A    ->    47 (A) B      44 (A) A     
 -0.1298       39 (A) A    ->    44 (A) A      55 (A) B     
  0.1298       39 (A) A    ->    55 (A) B      44 (A) A     
  0.1286       39 (A) B    ->    44 (A) B      55 (A) B     
 -0.1286       39 (A) B    ->    55 (A) B      44 (A) B     
  0.1283       39 (A) A    ->    55 (A) A      44 (A) B     
 -0.1283       39 (A) A    ->    44 (A) B      55 (A) A     
  0.1247       40 (A) B    ->    44 (A) B      54 (A) B     
 -0.1247       40 (A) B    ->    54 (A) B      44 (A) B     
  0.1245       40 (A) A    ->    54 (A) A      44 (A) B     
 -0.1245       40 (A) A    ->    44 (A) B      54 (A) A     
 -0.1245       40 (A) A    ->    44 (A) A      54 (A) B     
  0.1245       40 (A) A    ->    54 (A) B      44 (A) A     

              Summary of significant orbitals:

               Number  Type             Irrep      Energy
               39      Occ  Alpha      39 (A)     -0.6204
               40      Occ  Alpha      40 (A)     -0.6204
               41      Occ  Alpha      41 (A)     -0.4947
               42      Occ  Alpha      42 (A)     -0.4881
               43      Occ  Alpha      43 (A)     -0.4881
               39      Occ  Beta       39 (A)     -0.6204
               40      Occ  Beta       40 (A)     -0.6204
               41      Occ  Beta       41 (A)     -0.4947
               42      Occ  Beta       42 (A)     -0.4881
               43      Occ  Beta       43 (A)     -0.4881
               44      Vir  Alpha      44 (A)     -0.1704
               45      Vir  Alpha      45 (A)     -0.0422
               46      Vir  Alpha      46 (A)     -0.0231
               47      Vir  Alpha      47 (A)     -0.0231
               54      Vir  Alpha      54 (A)      0.1208
               55      Vir  Alpha      55 (A)      0.1208
               44      Vir  Beta       44 (A)     -0.1704
               45      Vir  Beta       45 (A)     -0.0422
               46      Vir  Beta       46 (A)     -0.0231
               47      Vir  Beta       47 (A)     -0.0231
               54      Vir  Beta       54 (A)      0.1208
               55      Vir  Beta       55 (A)      0.1208


 EOMEA transition 17/A
 Total energy = -498.89954368 a.u.  Excitation energy = 3.3080 eV.
 R1^2 = 0.2923  R2^2 = 0.7077  Res^2 = 4.81e-06
 Conv-d = yes

 Amplitude    Transitions between orbitals
 -0.7281       41 (A) A    ->    44 (A) A      44 (A) B     
  0.7281       41 (A) A    ->    44 (A) B      44 (A) A     
 -0.1323       40 (A) A    ->    44 (A) A      46 (A) B     
  0.1323       40 (A) A    ->    46 (A) B      44 (A) A     
 -0.1110       33 (A) A    ->    44 (A) A      44 (A) B     
  0.1110       33 (A) A    ->    44 (A) B      44 (A) A     
  0.1101       39 (A) A    ->    44 (A) A      47 (A) B     
 -0.1101       39 (A) A    ->    47 (A) B      44 (A) A     

              Summary of significant orbitals:

               Number  Type             Irrep      Energy
               33      Occ  Alpha      33 (A)     -0.7176
               39      Occ  Alpha      39 (A)     -0.6204
               40      Occ  Alpha      40 (A)     -0.6204
               41      Occ  Alpha      41 (A)     -0.4947
               44      Vir  Alpha      44 (A)     -0.1704
               44      Vir  Beta       44 (A)     -0.1704
               46      Vir  Beta       46 (A)     -0.0231
               47      Vir  Beta       47 (A)     -0.0231


 EOMEA transition 18/A
 Total energy = -498.89931595 a.u.  Excitation energy = 3.3142 eV.
 R1^2 = 0.0266  R2^2 = 0.9734  Res^2 = 8.91e-06
 Conv-d = yes

 Amplitude    Transitions between orbitals
  0.6594       43 (A) A    ->    44 (A) A      44 (A) B     
 -0.6594       43 (A) A    ->    44 (A) B      44 (A) A     
 -0.5978       42 (A) A    ->    44 (A) A      44 (A) B     
  0.5978       42 (A) A    ->    44 (A) B      44 (A) A     
 -0.1311       39 (A) A    ->    44 (A) A      46 (A) B     
  0.1311       39 (A) A    ->    46 (A) B      44 (A) A     
  0.1267       40 (A) A    ->    44 (A) A      47 (A) B     
 -0.1267       40 (A) A    ->    47 (A) B      44 (A) A     
  0.1022       42 (A) A    ->    45 (A) A      44 (A) B     
 -0.1022       42 (A) A    ->    44 (A) B      45 (A) A     

              Summary of significant orbitals:

               Number  Type             Irrep      Energy
               39      Occ  Alpha      39 (A)     -0.6204
               40      Occ  Alpha      40 (A)     -0.6204
               42      Occ  Alpha      42 (A)     -0.4881
               43      Occ  Alpha      43 (A)     -0.4881
               44      Vir  Alpha      44 (A)     -0.1704
               45      Vir  Alpha      45 (A)     -0.0422
               44      Vir  Beta       44 (A)     -0.1704
               46      Vir  Beta       46 (A)     -0.0231
               47      Vir  Beta       47 (A)     -0.0231


 EOMEA transition 19/A
 Total energy = -498.89929226 a.u.  Excitation energy = 3.3148 eV.
 R1^2 = 0.0271  R2^2 = 0.9729  Res^2 = 8.72e-06
 Conv-d = yes

 Amplitude    Transitions between orbitals
 -0.6441       42 (A) A    ->    44 (A) A      44 (A) B     
  0.6441       42 (A) A    ->    44 (A) B      44 (A) A     
 -0.6136       43 (A) A    ->    44 (A) A      44 (A) B     
  0.6136       43 (A) A    ->    44 (A) B      44 (A) A     
  0.1363       39 (A) A    ->    44 (A) A      47 (A) B     
 -0.1363       39 (A) A    ->    47 (A) B      44 (A) A     
  0.1192       40 (A) A    ->    44 (A) A      46 (A) B     
 -0.1192       40 (A) A    ->    46 (A) B      44 (A) A     

              Summary of significant orbitals:

               Number  Type             Irrep      Energy
               39      Occ  Alpha      39 (A)     -0.6204
               40      Occ  Alpha      40 (A)     -0.6204
               42      Occ  Alpha      42 (A)     -0.4881
               43      Occ  Alpha      43 (A)     -0.4881
               44      Vir  Alpha      44 (A)     -0.1704
               44      Vir  Beta       44 (A)     -0.1704
               46      Vir  Beta       46 (A)     -0.0231
               47      Vir  Beta       47 (A)     -0.0231


 EOMEA transition 20/A
 Total energy = -498.86575388 a.u.  Excitation energy = 4.2275 eV.
 R1^2 = 0.6241  R2^2 = 0.3759  Res^2 = 4.99e-06
 Conv-d = yes

 Amplitude    Transitions between orbitals
  0.7843       infty       ->    62 (A) B                   
  0.0589       infty       ->    108 (A) B                  
 -0.0553       infty       ->    94 (A) B                   
  0.0372       infty       ->    72 (A) B                   

              Summary of significant orbitals:

               Number  Type             Irrep      Energy
               62      Vir  Beta       62 (A)      0.2700
               72      Vir  Beta       72 (A)      0.4995
               94      Vir  Beta       94 (A)      0.6562
               108     Vir  Beta      108 (A)      0.8925


 EOMEA transition 21/A
 Total energy = -498.86091883 a.u.  Excitation energy = 4.3590 eV.
 R1^2 = 0.9360  R2^2 = 0.0640  Res^2 = 1.24e-06
 Conv-d = yes

 Amplitude    Transitions between orbitals
 -0.9534       infty       ->    59 (A) B                   
  0.0878       infty       ->    53 (A) B                   
  0.0812       infty       ->    65 (A) B                   
 -0.0562       infty       ->    83 (A) B                   

              Summary of significant orbitals:

               Number  Type             Irrep      Energy
               53      Vir  Beta       53 (A)      0.1127
               59      Vir  Beta       59 (A)      0.2353
               65      Vir  Beta       65 (A)      0.3227
               83      Vir  Beta       83 (A)      0.5722


 EOMEA transition 22/A
 Total energy = -498.85815545 a.u.  Excitation energy = 4.4342 eV.
 R1^2 = 0.0000  R2^2 = 1.0000  Res^2 = 4.43e-06
 Conv-d = yes

 Amplitude    Transitions between orbitals
 -0.3254       42 (A) A    ->    44 (A) A      45 (A) B     
  0.3254       42 (A) A    ->    45 (A) B      44 (A) A     
  0.3240       42 (A) A    ->    45 (A) A      44 (A) B     
 -0.3240       42 (A) A    ->    44 (A) B      45 (A) A     
  0.3237       42 (A) B    ->    44 (A) B      45 (A) B     
 -0.3237       42 (A) B    ->    45 (A) B      44 (A) B     
 -0.2975       41 (A) A    ->    44 (A) A      46 (A) B     
  0.2975       41 (A) A    ->    46 (A) B      44 (A) A     
  0.2965       41 (A) A    ->    46 (A) A      44 (A) B     
 -0.2965       41 (A) A    ->    44 (A) B      46 (A) A     
  0.2956       41 (A) B    ->    44 (A) B      46 (A) B     
 -0.2956       41 (A) B    ->    46 (A) B      44 (A) B     
  0.1694       43 (A) A    ->    44 (A) A      45 (A) B     
 -0.1694       43 (A) A    ->    45 (A) B      44 (A) A     
 -0.1687       43 (A) B    ->    44 (A) B      45 (A) B     
  0.1687       43 (A) B    ->    45 (A) B      44 (A) B     
 -0.1681       43 (A) A    ->    45 (A) A      44 (A) B     
  0.1681       43 (A) A    ->    44 (A) B      45 (A) A     
  0.1200       41 (A) A    ->    44 (A) A      55 (A) B     
 -0.1200       41 (A) A    ->    55 (A) B      44 (A) A     
 -0.1188       41 (A) A    ->    55 (A) A      44 (A) B     
  0.1188       41 (A) A    ->    44 (A) B      55 (A) A     
 -0.1186       41 (A) B    ->    44 (A) B      55 (A) B     
  0.1186       41 (A) B    ->    55 (A) B      44 (A) B     
  0.1070       39 (A) A    ->    44 (A) A      45 (A) B     
 -0.1070       39 (A) A    ->    45 (A) B      44 (A) A     
 -0.1059       39 (A) A    ->    45 (A) A      44 (A) B     
  0.1059       39 (A) A    ->    44 (A) B      45 (A) A     
 -0.1057       39 (A) B    ->    44 (A) B      45 (A) B     
  0.1057       39 (A) B    ->    45 (A) B      44 (A) B     

              Summary of significant orbitals:

               Number  Type             Irrep      Energy
               39      Occ  Alpha      39 (A)     -0.6204
               41      Occ  Alpha      41 (A)     -0.4947
               42      Occ  Alpha      42 (A)     -0.4881
               43      Occ  Alpha      43 (A)     -0.4881
               39      Occ  Beta       39 (A)     -0.6204
               41      Occ  Beta       41 (A)     -0.4947
               42      Occ  Beta       42 (A)     -0.4881
               43      Occ  Beta       43 (A)     -0.4881
               44      Vir  Alpha      44 (A)     -0.1704
               45      Vir  Alpha      45 (A)     -0.0422
               46      Vir  Alpha      46 (A)     -0.0231
               55      Vir  Alpha      55 (A)      0.1208
               44      Vir  Beta       44 (A)     -0.1704
               45      Vir  Beta       45 (A)     -0.0422
               46      Vir  Beta       46 (A)     -0.0231
               55      Vir  Beta       55 (A)      0.1208


 EOMEA transition 23/A
 Total energy = -498.84323403 a.u.  Excitation energy = 4.8403 eV.
 R1^2 = 0.9289  R2^2 = 0.0711  Res^2 = 3.69e-06
 Conv-d = yes

 Amplitude    Transitions between orbitals
  0.9165       infty       ->    60 (A) B                   
 -0.2388       infty       ->    63 (A) B                   
 -0.1068       infty       ->    61 (A) B                   
  0.0537       infty       ->    86 (A) B                   

              Summary of significant orbitals:

               Number  Type             Irrep      Energy
               60      Vir  Beta       60 (A)      0.2560
               61      Vir  Beta       61 (A)      0.2561
               63      Vir  Beta       63 (A)      0.2943
               86      Vir  Beta       86 (A)      0.5859


 EOMEA transition 24/A
 Total energy = -498.84318189 a.u.  Excitation energy = 4.8417 eV.
 R1^2 = 0.9290  R2^2 = 0.0710  Res^2 = 4.37e-06
 Conv-d = yes

 Amplitude    Transitions between orbitals
 -0.9221       infty       ->    61 (A) B                   
 -0.2351       infty       ->    64 (A) B                   
  0.0585       infty       ->    74 (A) B                   
 -0.0523       infty       ->    87 (A) B                   

              Summary of significant orbitals:

               Number  Type             Irrep      Energy
               61      Vir  Beta       61 (A)      0.2561
               64      Vir  Beta       64 (A)      0.2944
               74      Vir  Beta       74 (A)      0.5120
               87      Vir  Beta       87 (A)      0.5859


 EOMEA transition 25/A
 Total energy = -498.83989563 a.u.  Excitation energy = 4.9311 eV.
 R1^2 = 0.0073  R2^2 = 0.9927  Res^2 = 6.47e-06
 Conv-d = yes

 Amplitude    Transitions between orbitals
  0.6544       41 (A) A    ->    44 (A) A      45 (A) B     
 -0.6544       41 (A) A    ->    45 (A) B      44 (A) A     
  0.3332       41 (A) B    ->    44 (A) B      45 (A) B     
 -0.3332       41 (A) B    ->    45 (A) B      44 (A) B     
  0.3200       41 (A) A    ->    45 (A) A      44 (A) B     
 -0.3200       41 (A) A    ->    44 (A) B      45 (A) A     
  0.1947       43 (A) A    ->    44 (A) A      47 (A) B     
 -0.1947       43 (A) A    ->    47 (A) B      44 (A) A     
  0.1886       42 (A) A    ->    44 (A) A      46 (A) B     
 -0.1886       42 (A) A    ->    46 (A) B      44 (A) A     
  0.1803       42 (A) A    ->    44 (A) A      47 (A) B     
 -0.1803       42 (A) A    ->    47 (A) B      44 (A) A     
 -0.1742       43 (A) A    ->    44 (A) A      46 (A) B     
  0.1742       43 (A) A    ->    46 (A) B      44 (A) A     
  0.1388       39 (A) A    ->    44 (A) A      55 (A) B     
 -0.1388       39 (A) A    ->    55 (A) B      44 (A) A     
  0.1356       40 (A) A    ->    44 (A) A      54 (A) B     
 -0.1356       40 (A) A    ->    54 (A) B      44 (A) A     
  0.1175       42 (A) B    ->    44 (A) B      46 (A) B     
 -0.1175       42 (A) B    ->    46 (A) B      44 (A) B     
  0.1132       33 (A) A    ->    44 (A) A      62 (A) B     
 -0.1132       33 (A) A    ->    62 (A) B      44 (A) A     
  0.1131       43 (A) B    ->    44 (A) B      47 (A) B     
 -0.1131       43 (A) B    ->    47 (A) B      44 (A) B     
 -0.1094       43 (A) B    ->    44 (A) B      46 (A) B     
  0.1094       43 (A) B    ->    46 (A) B      44 (A) B     
  0.1033       42 (A) B    ->    44 (A) B      47 (A) B     
 -0.1033       42 (A) B    ->    47 (A) B      44 (A) B     

              Summary of significant orbitals:

               Number  Type             Irrep      Energy
               33      Occ  Alpha      33 (A)     -0.7176
               39      Occ  Alpha      39 (A)     -0.6204
               40      Occ  Alpha      40 (A)     -0.6204
               41      Occ  Alpha      41 (A)     -0.4947
               42      Occ  Alpha      42 (A)     -0.4881
               43      Occ  Alpha      43 (A)     -0.4881
               41      Occ  Beta       41 (A)     -0.4947
               42      Occ  Beta       42 (A)     -0.4881
               43      Occ  Beta       43 (A)     -0.4881
               44      Vir  Alpha      44 (A)     -0.1704
               45      Vir  Alpha      45 (A)     -0.0422
               44      Vir  Beta       44 (A)     -0.1704
               45      Vir  Beta       45 (A)     -0.0422
               46      Vir  Beta       46 (A)     -0.0231
               47      Vir  Beta       47 (A)     -0.0231
               54      Vir  Beta       54 (A)      0.1208
               55      Vir  Beta       55 (A)      0.1208
               62      Vir  Beta       62 (A)      0.2700


 EOMEA transition 26/A
 Total energy = -498.82663585 a.u.  Excitation energy = 5.2919 eV.
 R1^2 = 0.0580  R2^2 = 0.9420  Res^2 = 5.70e-07
 Conv-d = yes

 Amplitude    Transitions between orbitals
 -0.6999       40 (A) A    ->    44 (A) A      44 (A) B     
  0.6999       40 (A) A    ->    44 (A) B      44 (A) A     
 -0.3311       41 (A) A    ->    44 (A) A      46 (A) B     
  0.3311       41 (A) A    ->    46 (A) B      44 (A) A     
 -0.2005       41 (A) B    ->    44 (A) B      46 (A) B     
  0.2005       41 (A) B    ->    46 (A) B      44 (A) B     
 -0.1720       42 (A) A    ->    44 (A) A      45 (A) B     
  0.1720       42 (A) A    ->    45 (A) B      44 (A) A     
 -0.1670       43 (A) A    ->    44 (A) A      47 (A) B     
  0.1670       43 (A) A    ->    47 (A) B      44 (A) A     
  0.1634       42 (A) A    ->    44 (A) A      46 (A) B     
 -0.1634       42 (A) A    ->    46 (A) B      44 (A) A     
 -0.1289       41 (A) A    ->    46 (A) A      44 (A) B     
  0.1289       41 (A) A    ->    44 (A) B      46 (A) A     
  0.1093       42 (A) A    ->    44 (A) A      47 (A) B     
 -0.1093       42 (A) A    ->    47 (A) B      44 (A) A     
  0.1071       43 (A) A    ->    44 (A) A      46 (A) B     
 -0.1071       43 (A) A    ->    46 (A) B      44 (A) A     
  0.1013       43 (A) A    ->    44 (A) A      45 (A) B     
 -0.1013       43 (A) A    ->    45 (A) B      44 (A) A     

              Summary of significant orbitals:

               Number  Type             Irrep      Energy
               40      Occ  Alpha      40 (A)     -0.6204
               41      Occ  Alpha      41 (A)     -0.4947
               42      Occ  Alpha      42 (A)     -0.4881
               43      Occ  Alpha      43 (A)     -0.4881
               41      Occ  Beta       41 (A)     -0.4947
               44      Vir  Alpha      44 (A)     -0.1704
               46      Vir  Alpha      46 (A)     -0.0231
               44      Vir  Beta       44 (A)     -0.1704
               45      Vir  Beta       45 (A)     -0.0422
[...]
 Ket state:  Computed S^2 = 0.750000 will be treated as 0.750000 Sz = -0.500000
 Bra state:  Computed S^2 = 0.749994 will be treated as 0.750000 Sz = -0.500000
 Clebsh-Gordan coefficient: <0.500,-0.500;1.000,0.000|0.500,-0.500> = -0.577
 _________________________________________________
 One-electron SO (cm-1)
 Reduced matrix elements:
 <S|| Hso(L-) ||S'> = (-0.461811,-6.373030)
 <S|| Hso(L0) ||S'> = (0.000000,0.000681)
 <S|| Hso(L+) ||S'> = (-0.461811,6.373030)
 SOCC = 7.378236
 Actual matrix elements:
       |Sz=-0.50>           |Sz=0.50>
 <Sz=-0.50|(0.000000,-0.000393)(-0.377067,5.203557)
 <Sz=0.50|(0.377067,5.203557)(0.000000,0.000393)
 _________________________________________________
 Mean-field SO (cm-1)
 Reduced matrix elements:
 <S|| Hso(L-) ||S'> = (-0.246028,-3.394185)
 <S|| Hso(L0) ||S'> = (0.000000,-0.000719)
 <S|| Hso(L+) ||S'> = (-0.246028,3.394185)
 SOCC = 3.929550
 Actual matrix elements:
       |Sz=-0.50>           |Sz=0.50>
 <Sz=-0.50|(0.000000,0.000415)(-0.200881,2.771340)
 <Sz=0.50|(0.200881,2.771340)(0.000000,-0.000415)
 Singlet part of <S|| Hso(L0) ||S'> = (-0.000000,-0.000000) (excluded from all matrix elements)
 L-/L+ Averaged reduced matrix elements:
 <S|| Hso(L-) ||S'> = (-0.246028,-3.394185)
 <S|| Hso(L+) ||S'> = (-0.246028,3.394185)
 ______________________________________________________________
 B(Ket)->A(Bra) transition SO matrices
Full 2e SOC is not implemented withing libqints. 
I will do mean-field SOC with libqints, which is usually as good as full 2e SOC
 Analysing Sz ans S^2 of the pair of states...
 Ket state:  Computed S^2 = 0.749994 will be treated as 0.750000 Sz = -0.500000
 Bra state:  Computed S^2 = 0.750000 will be treated as 0.750000 Sz = -0.500000
 Clebsh-Gordan coefficient: <0.500,-0.500;1.000,0.000|0.500,-0.500> = -0.577
 _________________________________________________
 One-electron SO (cm-1)
 Reduced matrix elements:
 <S|| Hso(L-) ||S'> = (0.323537,6.762398)
 <S|| Hso(L0) ||S'> = (0.000000,-0.001478)
 <S|| Hso(L+) ||S'> = (0.323537,-6.762398)
 SOCC = 7.817477
 Actual matrix elements:
       |Sz=-0.50>           |Sz=0.50>
 <Sz=-0.50|(0.000000,0.000853)(0.264167,-5.521475)
 <Sz=0.50|(-0.264167,-5.521475)(0.000000,-0.000853)
 _________________________________________________
 Mean-field SO (cm-1)
 Reduced matrix elements:
 <S|| Hso(L-) ||S'> = (0.172661,3.607578)
 <S|| Hso(L0) ||S'> = (0.000000,0.000266)
 <S|| Hso(L+) ||S'> = (0.172661,-3.607578)
 SOCC = 4.170440
 Actual matrix elements:
       |Sz=-0.50>           |Sz=0.50>
 <Sz=-0.50|(0.000000,-0.000153)(0.140977,-2.945575)
 <Sz=0.50|(-0.140977,-2.945575)(0.000000,0.000153)
 Singlet part of <S|| Hso(L0) ||S'> = (-0.000000,-0.000000) (excluded from all matrix elements)
 L-/L+ Averaged reduced matrix elements:
 <S|| Hso(L-) ||S'> = (0.172661,3.607578)
 <S|| Hso(L+) ||S'> = (0.172661,-3.607578)
 ______________________________________________________________
   Arithmetically averaged transition SO matrices
   (The phases shown, Ket and Bra assingment are from A(Ket)->B(Bra))
 _________________________________________________
 One-electron SO (cm-1)
 SOCC = 7.597285
 Actual matrix elements:
       |Sz=-0.50>           |Sz=0.50>
 <Sz=-0.50|(0.000000,-0.000623)(-0.320617,5.362516)
 <Sz=0.50|(0.320617,5.362516)(0.000000,0.000623)
 _________________________________________________
 Mean-field SO (cm-1)
 SOCC = 4.049691
 Actual matrix elements:
       |Sz=-0.50>           |Sz=0.50>
 <Sz=-0.50|(0.000000,0.000284)(-0.170929,2.858458)
 <Sz=0.50|(0.170929,2.858458)(0.000000,-0.000284)
 ______________________________________________________________

 ------------------------------------------------------------------------------
 State A: eomea_mp2/b: 1/A
 State B: eomea_mp2/b: 30/A
 Energy GAP = 0.446394 a.u. = 12.147001 eV
 Transition dipole moment (a.u.):
   A->B: 0.014213 (X -0.002636, Y 0.013966, Z -0.000018)
   B->A: 0.011892 (X 0.000576, Y 0.011877, Z -0.000086)
 Oscillator strength (a.u.): 0.000049
 Transition angular momentum against gauge origin (a.u.):
   A->B:  (X -0.012036i, Y 0.002420i, Z 0.000075i)
   B->A:  (X -0.010742i, Y 0.000974i, Z -0.000533i)
 Norm of one-particle transition density matrix:
   A->B: 0.915352;   B->A: 0.918516
   ||gamma^AB||*||gamma^BA||: 0.840765

 ______________________________________________________________
 A(Ket)->B(Bra) transition SO matrices
Full 2e SOC is not implemented withing libqints. 
I will do mean-field SOC with libqints, which is usually as good as full 2e SOC
 Analysing Sz ans S^2 of the pair of states...
 Ket state:  Computed S^2 = 0.750000 will be treated as 0.750000 Sz = -0.500000
 Bra state:  Computed S^2 = 0.749982 will be treated as 0.750000 Sz = -0.500000
 Clebsh-Gordan coefficient: <0.500,-0.500;1.000,0.000|0.500,-0.500> = -0.577
 _________________________________________________
 One-electron SO (cm-1)
 Reduced matrix elements:
 <S|| Hso(L-) ||S'> = (-0.479207,3.083939)
 <S|| Hso(L0) ||S'> = (0.000000,0.003093)
 <S|| Hso(L+) ||S'> = (-0.479207,-3.083939)
 SOCC = 3.603762
 Actual matrix elements:
       |Sz=-0.50>           |Sz=0.50>
 <Sz=-0.50|(0.000000,-0.001786)(-0.391271,-2.518026)
 <Sz=0.50|(0.391271,-2.518026)(0.000000,0.001786)
 _________________________________________________
 Mean-field SO (cm-1)
 Reduced matrix elements:
 <S|| Hso(L-) ||S'> = (-0.261464,1.680962)
 <S|| Hso(L0) ||S'> = (0.000000,0.001670)
 <S|| Hso(L+) ||S'> = (-0.261464,-1.680962)
 SOCC = 1.964348
 Actual matrix elements:
       |Sz=-0.50>           |Sz=0.50>
 <Sz=-0.50|(0.000000,-0.000964)(-0.213485,-1.372499)
 <Sz=0.50|(0.213485,-1.372499)(0.000000,0.000964)
 Singlet part of <S|| Hso(L0) ||S'> = (-0.000000,-0.000000) (excluded from all matrix elements)
 L-/L+ Averaged reduced matrix elements:
 <S|| Hso(L-) ||S'> = (-0.261464,1.680962)
 <S|| Hso(L+) ||S'> = (-0.261464,-1.680962)
 ______________________________________________________________
 B(Ket)->A(Bra) transition SO matrices
Full 2e SOC is not implemented withing libqints. 
I will do mean-field SOC with libqints, which is usually as good as full 2e SOC
 Analysing Sz ans S^2 of the pair of states...
 Ket state:  Computed S^2 = 0.749982 will be treated as 0.750000 Sz = -0.500000
 Bra state:  Computed S^2 = 0.750000 will be treated as 0.750000 Sz = -0.500000
 Clebsh-Gordan coefficient: <0.500,-0.500;1.000,0.000|0.500,-0.500> = -0.577
 _________________________________________________
 One-electron SO (cm-1)
 Reduced matrix elements:
 <S|| Hso(L-) ||S'> = (0.492285,-3.193005)
 <S|| Hso(L0) ||S'> = (0.000000,-0.002727)
 <S|| Hso(L+) ||S'> = (0.492285,3.193005)
 SOCC = 3.730528
 Actual matrix elements:
       |Sz=-0.50>           |Sz=0.50>
 <Sz=-0.50|(0.000000,0.001575)(0.401949,2.607078)
 <Sz=0.50|(-0.401949,2.607078)(0.000000,-0.001575)
 _________________________________________________
 Mean-field SO (cm-1)
 Reduced matrix elements:
 <S|| Hso(L-) ||S'> = (0.270383,-1.746813)
 <S|| Hso(L0) ||S'> = (0.000000,-0.001375)
 <S|| Hso(L+) ||S'> = (0.270383,1.746813)
 SOCC = 2.041067
 Actual matrix elements:
       |Sz=-0.50>           |Sz=0.50>
 <Sz=-0.50|(0.000000,0.000794)(0.220767,1.426267)
 <Sz=0.50|(-0.220767,1.426267)(0.000000,-0.000794)
 Singlet part of <S|| Hso(L0) ||S'> = (-0.000000,-0.000000) (excluded from all matrix elements)
 L-/L+ Averaged reduced matrix elements:
 <S|| Hso(L-) ||S'> = (0.270383,-1.746813)
 <S|| Hso(L+) ||S'> = (0.270383,1.746813)
 ______________________________________________________________
   Arithmetically averaged transition SO matrices
   (The phases shown, Ket and Bra assingment are from A(Ket)->B(Bra))
 _________________________________________________
 One-electron SO (cm-1)
 SOCC = 3.667144
 Actual matrix elements:
       |Sz=-0.50>           |Sz=0.50>
 <Sz=-0.50|(0.000000,-0.001680)(-0.396610,-2.562552)
 <Sz=0.50|(0.396610,-2.562552)(0.000000,0.001680)
 _________________________________________________
 Mean-field SO (cm-1)
 SOCC = 2.002707
 Actual matrix elements:
       |Sz=-0.50>           |Sz=0.50>
 <Sz=-0.50|(0.000000,-0.000879)(-0.217126,-1.399383)
 <Sz=0.50|(0.217126,-1.399383)(0.000000,0.000879)
 ______________________________________________________________


 All requested transition properties have been computed

 Transition Properties:   CPU 14304.56 s  wall 15945.99 s

 Total ccman2 time:   CPU 37051.01 s  wall 38735.99 s

 
 --------------------------------------------------------------
 
                    Orbital Energies (a.u.)
 --------------------------------------------------------------
 
 Alpha MOs
 -- Occupied --
-11.4381 -11.4381 -11.4380 -11.4380 -11.4379 -11.4379 -11.4148 -11.4108
-11.4108 -11.4106 -11.3983 -11.3983 -11.3982  -1.3690  -1.2950  -1.2950
 -1.1972  -1.1972  -1.1818  -1.0888  -1.0233  -1.0058  -1.0058  -0.8855
 -0.8854  -0.8648  -0.8648  -0.8208  -0.7728  -0.7728  -0.7683  -0.7353
 -0.7176  -0.7141  -0.7140  -0.7090  -0.6446  -0.6444  -0.6204  -0.6204
 -0.4947  -0.4881  -0.4881
 -- Virtual --
 -0.1704  -0.0422  -0.0231  -0.0231   0.0410   0.0621   0.0621   0.0878
  0.0878   0.1127   0.1208   0.1208   0.1335   0.1545   0.1545   0.2353
  0.2560   0.2561   0.2700   0.2943   0.2944   0.3227   0.3247   0.3248
  0.3378   0.4226   0.4227   0.4832   0.4995   0.5065   0.5120   0.5120
  0.5120   0.5258   0.5258   0.5289   0.5289   0.5712   0.5713   0.5722
  0.5790   0.5791   0.5859   0.5859   0.5864   0.6020   0.6049   0.6198
  0.6198   0.6499   0.6562   0.6960   0.6960   0.7155   0.7156   0.7382
  0.7482   0.7590   0.7591   0.7605   0.7606   0.7902   0.8298   0.8299
  0.8925   0.8950   0.8951   0.9276   0.9336   0.9337   0.9794   0.9795
  0.9813   0.9953   1.0115   1.0115   1.0119   1.0144   1.0226   1.0489
  1.0490   1.0777   1.0778   1.0924   1.1098   1.1098   1.1407   1.1408
  1.1704   1.1704   1.1924   1.1938   1.1940   1.2360   1.2780   1.4037
  1.4037   1.4104   1.4707   1.4707   1.4771   1.4887   1.4888   1.5517
  1.5517   1.5528   1.5560   1.5943   1.5943   1.6356   1.6357   1.6419
  1.6996   1.7086   1.7240   1.7242   1.7350   1.7389   1.7393   1.7622
  1.7638   1.7924   1.7924   1.7958   1.7958   1.8246   1.8248   1.8732
  1.8733   1.8990   1.9130   1.9202   1.9203   1.9309   1.9310   1.9652
  1.9658   1.9767   1.9768   1.9841   1.9860   1.9862   2.0085   2.0285
  2.0288   2.0290   2.1371   2.1372   2.1962   2.1962   2.2194   2.2255
  2.2400   2.2486   2.2491   2.2493   2.2873   2.2874   2.3877   2.3879
  2.3922   2.5028   2.5030   2.5211   2.5785   2.5787   2.6626   2.6840
  2.6841   2.7538   2.7558   2.7559   2.8708   2.8710   2.8731   2.9436
  2.9594   3.0256   3.0259   3.0843   3.0845   3.5799   3.7576   3.7579
 --------------------------------------------------------------
 
          Ground-State Mulliken Net Atomic Charges

     Atom                 Charge (a.u.)
  ----------------------------------------
      1 C                    -0.021800
      2 C                     0.035598
      3 C                    -0.118698
      4 C                    -0.021575
      5 C                    -0.118925
      6 C                     0.035962
      7 H                     0.022640
      8 C                     0.036027
      9 C                    -0.022303
     10 C                     0.036201
     11 C                    -0.118796
     12 C                     0.036165
     13 C                    -0.022267
     14 C                     0.035942
     15 H                     0.030935
     16 H                     0.022606
     17 H                     0.022588
     18 H                     0.031147
     19 H                     0.022376
     20 H                     0.022664
     21 H                     0.022392
     22 H                     0.031123
  ----------------------------------------
  Sum of atomic charges =     0.000000

 -----------------------------------------------------------------
                    Cartesian Multipole Moments
 -----------------------------------------------------------------
    Charge (ESU x 10^10)
                -0.0000
    Dipole Moment (Debye)
         X       0.0020      Y      -0.0023      Z       0.0018
       Tot       0.0036
    Quadrupole Moments (Debye-Ang)
        XX     -64.6832     XY       0.0020     YY     -64.6649
        XZ       0.0060     YZ      -0.0018     ZZ     -82.9866
    Octopole Moments (Debye-Ang^2)
       XXX       2.1985    XXY      -2.7218    XYY      -2.1777
       YYY       2.6895    XXZ       0.0315    XYZ      -0.0199
       YYZ       0.0104    XZZ       0.0014    YZZ      -0.0013
       ZZZ       0.0025
    Hexadecapole Moments (Debye-Ang^3)
      XXXX   -1192.5083   XXXY      -0.0131   XXYY    -397.4604
      XYYY       0.0584   YYYY   -1192.0720   XXXZ       0.0356
      XXYZ       0.0246   XYYZ       0.0388   YYYZ      -0.0613
      XXZZ    -267.1747   XYZZ      -0.0014   YYZZ    -267.1301
      XZZZ       0.0093   YZZZ      -0.0027   ZZZZ     -95.2954
 -----------------------------------------------------------------
 Mayer SCF Bond Order, atomic valence on the diagonal:

            1           2           3           4           5           6
    1   3.9537922   1.4549957  -0.0071292   0.0256131  -0.0070725   1.4558876
    2   1.4549957   3.8943379   1.3099976   0.0013661   0.0338330   0.0181125
    3  -0.0071292   1.3099976   4.0268914   1.3043179  -0.0145855   0.0338417
    4   0.0256131   0.0013661   1.3043179   4.0404531   1.3046017   0.0013058
    5  -0.0070725   0.0338330  -0.0145855   1.3046017   4.0271169   1.3093547
    6   1.4558876   0.0181125   0.0338417   0.0013058   1.3093547   3.8942449
    7  -0.0031339   0.0035196   0.0005467   0.0060670   0.0219866   0.9624220
    8   0.0128736  -0.0206785   1.3086722   0.0012268   0.0022609   0.0190372
    9   0.0011870   0.0129028  -0.0071034   0.0254365   0.0023183   0.0090288
   10   0.0090268   0.0190953   0.0337199   0.0012784   0.0022612   0.0185340
   11   0.0023206   0.0022634  -0.0146359   1.3038926  -0.0146029   0.0022559
   12   0.0090439   0.0185146   0.0022597   0.0013091   0.0337683   0.0190165
   13   0.0011869   0.0090512   0.0023208   0.0255313  -0.0070985   0.0129072
   14   0.0128870   0.0190135   0.0022558   0.0012536   1.3091507  -0.0207416
   15   0.9683753   0.0046995   0.0043306  -0.0002235   0.0043306   0.0045682
   16  -0.0030844   0.9623938   0.0220054   0.0060653   0.0005461   0.0035095
   17   0.0002174  -0.0056102   0.0220007   0.0060577   0.0000091   0.0001965
   18   0.0000384   0.0007231   0.0043469  -0.0002234   0.0001895   0.0000268
   19   0.0000586   0.0001515   0.0005448   0.0060663   0.0000083   0.0002656
   20   0.0002178   0.0001966   0.0000103   0.0060610   0.0220255  -0.0056020
   21   0.0000588   0.0002661   0.0000078   0.0060662   0.0005457   0.0001505
   22   0.0000376   0.0000271   0.0001894  -0.0002230   0.0043456   0.0007251
            7           8           9          10          11          12
    1  -0.0031339   0.0128736   0.0011870   0.0090268   0.0023206   0.0090439
    2   0.0035196  -0.0206785   0.0129028   0.0190953   0.0022634   0.0185146
    3   0.0005467   1.3086722  -0.0071034   0.0337199  -0.0146359   0.0022597
    4   0.0060670   0.0012268   0.0254365   0.0012784   1.3038926   0.0013091
    5   0.0219866   0.0022609   0.0023183   0.0022612  -0.0146029   0.0337683
    6   0.9624220   0.0190372   0.0090288   0.0185340   0.0022559   0.0190165
    7   0.9914523   0.0001505   0.0000585   0.0002656   0.0000099   0.0001967
    8   0.0001505   3.8939769   1.4560044   0.0182985   0.0337335   0.0191040
    9   0.0000585   1.4560044   3.9536075   1.4548569  -0.0071579   0.0128887
   10   0.0002656   0.0182985   1.4548569   3.8937979   1.3094116  -0.0205996
   11   0.0000099   0.0337335  -0.0071579   1.3094116   4.0269705   1.3096622
   12   0.0001967   0.0191040   0.0128887  -0.0205996   1.3096622   3.8940239
   13   0.0002185   0.0090123   0.0011873   0.0128815  -0.0071194   1.4550233
   14  -0.0055987   0.0185295   0.0090115   0.0191041   0.0338049   0.0181873
   15  -0.0028253   0.0007238   0.0000372   0.0000270   0.0001892   0.0000269
   16   0.0008117  -0.0055923   0.0002182   0.0001974   0.0000106   0.0002656
   17   0.0000261   0.9624339  -0.0031206   0.0035159   0.0005464   0.0001513
   18   0.0000108   0.0045784   0.9683849   0.0045812   0.0043413   0.0007233
   19   0.0000387   0.0035027  -0.0031204   0.9623849   0.0221136  -0.0056166
   20   0.0031518   0.0002652   0.0000584   0.0001511   0.0005468   0.0035151
   21   0.0000261   0.0001974   0.0002183  -0.0056106   0.0220434   0.9623865
   22   0.0000061   0.0000267   0.0000381   0.0007224   0.0043328   0.0046136
           13          14          15          16          17          18
    1   0.0011869   0.0128870   0.9683753  -0.0030844   0.0002174   0.0000384
    2   0.0090512   0.0190135   0.0046995   0.9623938  -0.0056102   0.0007231
    3   0.0023208   0.0022558   0.0043306   0.0220054   0.0220007   0.0043469
    4   0.0255313   0.0012536  -0.0002235   0.0060653   0.0060577  -0.0002234
    5  -0.0070985   1.3091507   0.0043306   0.0005461   0.0000091   0.0001895
    6   0.0129072  -0.0207416   0.0045682   0.0035095   0.0001965   0.0000268
    7   0.0002185  -0.0055987  -0.0028253   0.0008117   0.0000261   0.0000108
    8   0.0090123   0.0185295   0.0007238  -0.0055923   0.9624339   0.0045784
    9   0.0011873   0.0090115   0.0000372   0.0002182  -0.0031206   0.9683849
   10   0.0128815   0.0191041   0.0000270   0.0001974   0.0035159   0.0045812
   11  -0.0071194   0.0338049   0.0001892   0.0000106   0.0005464   0.0043413
   12   1.4550233   0.0181873   0.0000269   0.0002656   0.0001513   0.0007233
   13   3.9537457   1.4558347   0.0000375   0.0000588   0.0000583   0.0000381
   14   1.4558347   3.8940825   0.0007239   0.0001504   0.0002656   0.0000268
   15   0.0000375   0.0007239   0.9831585  -0.0028421   0.0000059   0.0000160
   16   0.0000588   0.0001504  -0.0028421   0.9914733   0.0031484   0.0000061
   17   0.0000583   0.0002656   0.0000059   0.0031484   0.9914738  -0.0028253
   18   0.0000381   0.0000268   0.0000160   0.0000061  -0.0028253   0.9831023
   19   0.0002178   0.0001973   0.0000107   0.0000261   0.0008097  -0.0028327
   20  -0.0031487   0.9624278   0.0000060   0.0000261   0.0000388   0.0000108
   21  -0.0030633   0.0035039   0.0000108   0.0000388   0.0000261   0.0000060
   22   0.9683809   0.0045786   0.0000160   0.0000107   0.0000108   0.0000160
           19          20          21          22
    1   0.0000586   0.0002178   0.0000588   0.0000376
    2   0.0001515   0.0001966   0.0002661   0.0000271
    3   0.0005448   0.0000103   0.0000078   0.0001894
    4   0.0060663   0.0060610   0.0060662  -0.0002230
    5   0.0000083   0.0220255   0.0005457   0.0043456
    6   0.0002656  -0.0056020   0.0001505   0.0007251
    7   0.0000387   0.0031518   0.0000261   0.0000061
    8   0.0035027   0.0002652   0.0001974   0.0000267
    9  -0.0031204   0.0000584   0.0002183   0.0000381
   10   0.9623849   0.0001511  -0.0056106   0.0007224
   11   0.0221136   0.0005468   0.0220434   0.0043328
   12  -0.0056166   0.0035151   0.9623865   0.0046136
   13   0.0002178  -0.0031487  -0.0030633   0.9683809
   14   0.0001973   0.9624278   0.0035039   0.0045786
   15   0.0000107   0.0000060   0.0000108   0.0000160
   16   0.0000261   0.0000261   0.0000388   0.0000107
   17   0.0008097   0.0000388   0.0000261   0.0000108
   18  -0.0028327   0.0000108   0.0000060   0.0000160
   19   0.9915203   0.0000262   0.0031442   0.0000060
   20   0.0000262   0.9914772   0.0008099  -0.0028218
   21   0.0031442   0.0008099   0.9915005  -0.0028394
   22   0.0000060  -0.0028218  -0.0028394   0.9831161


 Total job time:  38899.74s(wall), 37212.49s(cpu) 
 Tue Jun  4 01:31:28 2024

        *************************************************************
        *                                                           *
        *  Thank you very much for using Q-Chem.  Have a nice day.  *
        *                                                           *
        *************************************************************


