                  Welcome to Q-Chem
     A Quantum Leap Into The Future Of Chemistry


 Q-Chem 6.0 (devel), Q-Chem, Inc., Pleasanton, CA (2022)

 E. Epifanovsky,  A. T. B. Gilbert,  Xintian Feng,  Joonho Lee,  Yuezhi Mao,  
 N. Mardirossian,  P. Pokhilko,  A. White,  M. Wormit,  M. P. Coons,  
 A. L. Dempwolff,  Zhengting Gan,  D. Hait,  P. R. Horn,  L. D. Jacobson,  
 I. Kaliman,  J. Kussmann,  A. W. Lange,  Ka Un Lao,  D. S. Levine,  Jie Liu,  
 S. C. McKenzie,  A. F. Morrison,  K. Nanda,  F. Plasser,  D. R. Rehn,  
 M. L. Vidal,  Zhi-Qiang You,  Ying Zhu,  B. Alam,  B. Albrecht,  
 A. Aldossary,  E. Alguire,  J. H. Andersen,  V. Athavale,  D. Barton,  
 K. Begam,  A. Behn,  N. Bellonzi,  Y. A. Bernard,  E. J. Berquist,  
 H. Burton,  A. Carreras,  K. Carter-Fenk,  Romit Chakraborty,  
 Chandrima Chakravarty,  Junhan Chen,  A. D. Chien,  K. D. Closser,  
 V. Cofer-Shabica,  L. Cunha,  S. Dasgupta,  Jia Deng,  M. de Wergifosse,  
 M. Diedenhofen,  Hainam Do,  S. Ehlert,  Po-Tung Fang,  S. Fatehi,  
 Qingguo Feng,  T. Friedhoff,  B. Ganoe,  J. Gayvert,  Qinghui Ge,  
 G. Gidofalvi,  M. Goldey,  J. Gomes,  C. Gonzalez-Espinoza,  S. Gulania,  
 A. Gunina,  J. A. Gyamfi,  M. W. D. Hanson-Heine,  P. H. P. Harbach,  
 A. W. Hauser,  M. F. Herbst,  M. Hernandez Vera,  M. Hodecker,  
 Z. C. Holden,  S. Houck,  Xunkun Huang,  Kerwin Hui,  B. C. Huynh,  
 K. Ikeda,  M. Ivanov,  Hyunjun Ji,  Zuxin Jin,  Hanjie Jiang,  B. Kaduk,  
 S. Kaehler,  R. Kang,  K. Khistyaev,  Jaehoon Kim,  Yongbin Kim,  
 P. Klunzinger,  Z. Koczor-Benda,  Joong Hoon Koh,  D. Kosenkov,  
 Saikiran Kotaru,  L. Koulias,  T. Kowalczyk,  C. M. Krauter,  K. Kue,  
 A. Kunitsa,  T. Kus,  A. Landau,  K. V. Lawler,  D. Lefrancois,  S. Lehtola,  
 Rain Li,  Shaozhi Li,  Yi-Pei Li,  Jiashu Liang,  M. Liebenthal,  
 Hung-Hsuan Lin,  You-Sheng Lin,  Fenglai Liu,  Kuan-Yu Liu,  
 M. Loipersberger,  A. Luenser,  C. Malbon,  A. Manjanath,  P. Manohar,  
 E. Mansoor,  S. F. Manzer,  Shan-Ping Mao,  A. V. Marenich,  T. Markovich,  
 S. Mason,  F. Matz,  S. A. Maurer,  P. F. McLaughlin,  M. F. S. J. Menger,  
 J.-M. Mewes,  S. A. Mewes,  P. Morgante,  Mohammad Mostafanejad,  
 J. W. Mullinax,  K. J. Oosterbaan,  G. Paran,  V. Parravicini,  
 Alexander C. Paul,  Suranjan K. Paul,  F. Pavosevic,  Zheng Pei,  S. Prager,  
 E. I. Proynov,  E. Ramos,  B. Rana,  A. E. Rask,  A. Rettig,  R. M. Richard,  
 F. Rob,  E. Rossomme,  T. Scheele,  M. Scheurer,  M. Schneider,  
 P. E. Schneider,  N. Sergueev,  S. M. Sharada,  Hengyuan Shen,  
 W. Skomorowski,  D. W. Small,  C. J. Stein,  Yingli Su,  Yu-Chuan Su,  
 E. J. Sundstrom,  Zhen Tao,  J. Thirman,  Hung-Yi Tsai,  T. Tsuchimochi,  
 N. M. Tubman,  C. Utku,  S. P. Veccham,  O. Vydrov,  J. Wenzel,  
 Jonathan Wong,  J. Witte,  A. Yamada,  Chou-Hsun Yang,  Kun Yao,  
 S. Yeganeh,  S. R. Yost,  A. Zech,  F. Zeller,  Igor Ying Zhang,  
 Xing Zhang,  Yu Zhang,  D. Zuev,  A. Aspuru-Guzik,  A. T. Bell,  
 N. A. Besley,  K. B. Bravaya,  B. R. Brooks,  D. Casanova,  Jeng-Da Chai,  
 Hsing-Ta Chen,  S. Coriani,  C. J. Cramer,  A. E. DePrince, III,  
 R. A. DiStasio Jr.,  A. Dreuw,  B. D. Dunietz,  T. R. Furlani,  
 W. A. Goddard III,  S. Grimme,  S. Hammes-Schiffer,  T. Head-Gordon,  
 W. J. Hehre,  Chao-Ping Hsu,  T.-C. Jagau,  Yousung Jung,  A. Klamt,  
 Jing Kong,  D. S. Lambrecht,  Xiangyuan Li,  WanZhen Liang,  N. J. Mayhall,  
 C. W. McCurdy,  J. B. Neaton,  T. Neudecker,  C. Ochsenfeld,  
 J. A. Parkhill,  R. Peverati,  V. A. Rassolov,  Haisheng Ren,  Yihan Shao,  
 L. V. Slipchenko,  R. P. Steele,  J. E. Subotnik,  A. J. W. Thom,  
 A. Tkatchenko,  D. G. Truhlar,  T. Van Voorhis,  Fan Wang,  
 T. A. Wesolowski,  K. B. Whaley,  H. L. Woodcock III,  P. M. Zimmerman,  
 S. Faraji,  P. M. W. Gill,  M. Head-Gordon,  J. M. Herbert,  A. I. Krylov

 Contributors to earlier versions of Q-Chem not listed above: 
 R. D. Adamson,  B. Austin,  R. Baer,  J. Baker,  G. J. O. Beran,  
 K. Brandhorst,  S. T. Brown,  E. F. C. Byrd,  Arup K. Chakraborty,  
 G. K. L. Chan,  Chun-Min Chang,  Yunqing Chen,  C.-L. Cheng,  
 Siu Hung Chien,  D. M. Chipman,  D. L. Crittenden,  H. Dachsel,  
 R. J. Doerksen,  A. D. Dutoi,  R. G. Edgar,  J. Fosso-Tande,  
 L. Fusti-Molnar,  D. Ghosh,  A. Ghysels,  A. Golubeva-Zadorozhnaya,  
 J. Gonthier,  M. S. Gordon,  S. R. Gwaltney,  G. Hawkins,  J. E. Herr,  
 A. Heyden,  S. Hirata,  E. G. Hohenstein,  G. Kedziora,  F. J. Keil,  
 C. Kelley,  Jihan Kim,  R. A. King,  R. Z. Khaliullin,  P. P. Korambath,  
 W. Kurlancheek,  A. Laurent,  A. M. Lee,  M. S. Lee,  S. V. Levchenko,  
 Ching Yeh Lin,  D. Liotard,  E. Livshits,  R. C. Lochan,  I. Lotan,  
 L. A. Martinez-Martinez,  P. E. Maslen,  N. Nair,  D. P. O'Neill,  
 D. Neuhauser,  E. Neuscamman,  C. M. Oana,  R. Olivares-Amaya,  R. Olson,  
 T. M. Perrine,  B. Peters,  P. A. Pieniazek,  A. Prociuk,  Y. M. Rhee,  
 J. Ritchie,  M. A. Rohrdanz,  E. Rosta,  N. J. Russ,  H. F. Schaefer III,  
 M. W. Schmidt,  N. E. Schultz,  S. Sharma,  N. Shenvi,  C. D. Sherrill,  
 A. C. Simmonett,  A. Sodt,  T. Stein,  D. Stuck,  K. S. Thanthiriwatte,  
 V. Vanovschi,  L. Vogt,  Tao Wang,  A. Warshel,  M. A. Watson,  
 C. F. Williams,  Q. Wu,  X. Xu,  Jun Yang,  W. Zhang,  Yan Zhao

   Please cite Q-Chem as follows:
  "Software for the frontiers of quantum chemistry:
   An overview of developments in the Q-Chem 5 package"
   J. Chem. Phys. 155, 084801 (2021)
   https://doi.org/10.1063/5.0055522 (open access)

 Q-Chem 6.0.1 for Intel X86 EM64T Linux

 Parts of Q-Chem use Armadillo 9.900.5 (Nocturnal Misbehaviour).
 http://arma.sourceforge.net/

 Q-Chem begins on Sun Mar 31 11:29:08 2024  

 Host: atlas-282
0

     Scratch files written to ./qchem73267//
 Processing $rem in /scratch/abel/SOFTWARE/qchem/config/preferences:
 Processing $rem in /dipc/acebg/.qchemrc:

 Checking the input file for inconsistencies... 	...done.

--------------------------------------------------------------
User input:
--------------------------------------------------------------
$comment
 RAS-SF CALCULATION
$end

$molecule
READ doublet_2Tm.molecule
$end

$rem
!**CALCULATION TYPE***     
JOBTYPE            sp    
EXCHANGE           HF
CORRELATION        RASCI    !RASCI=Casanova; RASCI2=Zimmerman
BASIS              cc-pVDZ

!***SCF REFERENCE***
!SKIP_SCFMAN        FALSE
UNRESTRICTED       FALSE
!SCF_GUESS          core
!SCF_GUESS_MIX      FALSE
!SCF_GUESS_ALWAYS   FALSE
!MAX_SCF_CYCLES      500
!SCF_CONVERGENCE    10
SCF_ALGORITHM      DIIS_GDM !DIIS,DM,DIIS_DM,GDM,DIIS_GDM,GD

!SYMMETRY           TRUE   !use of symmetry for calculating integrals
!SYM_IGNORE         FALSE  !turn off using symmetry
!SYM_TOL            5      !tolerance for determining point group
!USE_ABELIAN_SUBGROUP      !define to use abelian group

!THRESH             14
!SCF_FINAL_PRINT     1 !0,1,2,3

!****RAS-SF****
RAS_ROOTS          20       !number of RAS-CI roots to be computed
SET_ITER           150     !number of iterations in RASCI
RAS_ELEC 7
RAS_ELEC_ALPHA 4
RAS_ELEC_BETA 3

RAS_ACT 7
RAS_ACT_ORB [41, 42, 43, 44, 45, 46, 47]
RAS_OCC 40
!N_FROZEN_CORE      FC     !Number of frozen core orbitals
!N_FROZEN_VIRTUAL   0      !Number of frozen virtual orbitals

!RAS_DO_HOLE        TRUE   !presence of hole excitations in RAS-CI wave function
!RAS_DO_PART        TRUE   !presence of particle excitations
!RAS_AMPL_PRINT     10     !threshold (×10 2 ) for the CI amplitudes

!RAS_GUESS_CS       0      !number of closed shell guess conﬁgurations
!RAS_SPIN_MULT      0      !spin multiplicity. Only for Ms = 0 
!RAS_SRDFT          FALSE  !short-range density functional RAS-CI
!RAS_NFRAG          0     !fragments of excitation analysis in RASCI

RAS_PRINT          2      !level of information
!RAS_NATORB         TRUE   !computation of the natural orbital occupancies
!RAS_NATORB_STATE  0      !Saves NO of i RAS computed state in .fchk ﬁle
!RAS_FOD            TRUE

!****RAS-SOC****
CALC_SOC           TRUE   !calculate SOC for EOM-CC, RAS-CI, ADC, TDDFT/TDA and TDDFT
!RAS_SOC_2E        TRUE   !two-electron mean-ﬁeld contribution, default=true
RAS_SOC_SYM_DENS   TRUE   !averaging of α and β densities

!****MEMORY****
MEM_TOTAL          60000 !Default 2000 MB
MEM_STATIC         20000  !Default 64 MB

!**Molecular Properties and Analysis **                                                                                          
!POP_MULLIKEN       TRUE   !Run Mulliken population analysis
!LOWDIN_POPULATION  TRUE   !Run Löwdin population analysis
!GUI                0       !Checkpoints generation
STATE_ANALYSIS     TRUE

!**Wave function analysis of RAS-CI states: MOLDEN**
!PLOTS = 0     ! Note: This can be omitted, default is 0
!NTO_PAIRS = 2 ! Note: This can be omitted, default is 2
!GUI 0
!MOLDEN_FORMAT      TRUE
!PRINT_ORBITALS     15

!**Wave function analysis of RAS-CI state: CUBE**
!NTO_PAIRS = 2 ! Note: This can be omitted, default is 2
!PLOTS = 1
!GUI 0

!**SR-DFT**
!RAS_SRDFT           TRUE !Perform short-range density functional RAS-CI
!RAS_SRDFT_EXC       0 !EX functional. 0=HF. 
!RAS_SRDFT_ONLY_COR  TRUE !No use of EXC functional
!RAS_SRDFT_COR       srPBE !short-range correlation functional
!ras_srdft_0         TRUE !true: no iteration (one-shot); false: iteration
!RAS_OMEGA           400 !Coulomb range-separation parameter. def=400
!RAS_SRDFT_DAMP     0.5 !dumping factor. def=0.5
$end

!$plots
!   grid_points 100 100 100
!   grid_range  (-10,10) (-10,10) (-10,10)
!$end

--------------------------------------------------------------
 ----------------------------------------------------------------
             Standard Nuclear Orientation (Angstroms)
    I     Atom           X                Y                Z
 ----------------------------------------------------------------
    1      C       0.6243679838    -2.7362621432     0.0003164261
    2      C      -0.7015735948    -2.3361348215    -0.0001649656
    3      C      -1.0419824835    -0.9670971198    -0.0008439034
    4      C      -0.0000548132     0.0000772801    -0.0007831605
    5      C       1.3584588456    -0.4190204443    -0.0006995145
    6      C       1.6452104651    -1.8007803647     0.0005070396
    7      H       2.6803978057    -2.1201859378     0.0010792188
    8      C      -2.3824177811    -0.5244633738    -0.0001682759
    9      C      -2.6817315780     0.8273312149     0.0010471198
   10      C      -1.6726421175     1.7759152657     0.0004904235
   11      C      -0.3163469004     1.3862234269    -0.0005293069
   12      C       0.7367752863     2.3252776938    -0.0005747718
   13      C       2.0576065541     1.9084870347     0.0003141988
   14      C       2.3743006152     0.5606173675     0.0003067751
   15      H       0.8642366403    -3.7915666760     0.0017549180
   16      H      -1.4954579885    -3.0731591179    -0.0014156115
   17      H      -3.1763935341    -1.2613339838    -0.0004689351
   18      H      -3.7163564276     1.1467917750     0.0019081870
   19      H      -1.9134249087     2.8315998155     0.0005558156
   20      H       3.4093648619     0.2407464211     0.0016850583
   21      H       0.4965831230     3.3810858808    -0.0007420755
   22      H       2.8512275382     2.6449957256     0.0003349189
 ----------------------------------------------------------------
 Molecular Point Group                 C1    NOp =  1
 Largest Abelian Subgroup              C1    NOp =  1
 Nuclear Repulsion Energy =         700.08505759 hartrees
 There are       44 alpha and       43 beta electrons
 Requested basis set is cc-pVDZ
 There are 105 shells and 227 basis functions

 Q-Chem warning in module libmdc/get_mega.C, line 167:

 Allowed MEM_STATIC has been capped at MEM_STATIC=8191.
 Reduce the value of MEM_STATIC to silence this warning.


 Total QAlloc Memory Limit  60000 MB
 Mega-Array Size      8007 MB
 MEM_STATIC part      8191 MB

 A cutoff of  1.0D-09 yielded   4671 shell pairs
 There are     21997 function pairs (     24618 Cartesian)
 Smallest overlap matrix eigenvalue = 1.32E-04

 Scale SEOQF with 1.000000e-01/1.000000e-01/1.000000e+00

 Standard Electronic Orientation quadrupole field applied
 Nucleus-field energy     =     0.0000000272 hartrees
 Guess from superposition of atomic densities
 Warning:  Energy on first SCF cycle will be non-variational
 SAD guess density has 87.000000 electrons

 -----------------------------------------------------------------------
  General SCF calculation program by
  Eric Jon Sundstrom, Paul Horn, Yuezhi Mao, Dmitri Zuev, Alec White,
  David Stuck, Shaama M.S., Shane Yost, Joonho Lee, David Small,
  Daniel Levine, Susi Lehtola, Hugh Burton, Evgeny Epifanovsky,
  Bang C. Huynh
 -----------------------------------------------------------------------
 Hartree-Fock
 Orthonormalizing orbitals
 A restricted open-shell SCF calculation will be
 performed using DIIS, GDM
 SCF converges when RMS gradient is below 1.0e-05
 ---------------------------------------
  Cycle       Energy         DIIS error
 ---------------------------------------
    1    -495.6486807953      4.35e-02  
    2    -495.7518196112      3.88e-02  
    3    -497.3936730703      1.01e-02  
    4    -497.5440418417      3.29e-03  Done DIIS. Switching to GDM
 ---------------------------------------
  Cycle       Energy        RMS Gradient
 ---------------------------------------
    1    -497.5440418417      8.31e-02   Normal BFGS step
    2    -497.5528350054      6.79e-02   Normal BFGS step
    3    -497.5629000998      2.47e-03   Normal BFGS step
    4    -497.5629514055      7.35e-04   Normal BFGS step
    5    -497.5629560790      3.41e-04   Normal BFGS step
    6    -497.5629564503      4.99e-05   Normal BFGS step
    7    -497.5629566373      6.31e-05   Normal BFGS step
    8    -497.5629567481      3.15e-05   Normal BFGS step
    9    -497.5629567956      2.73e-05   Normal BFGS step
   10    -497.5629571474      1.29e-05   Normal BFGS step
   11    -497.5629571049      4.25e-06  Convergence criterion met
The disked orbital energies are calculated using alpha and beta Focks
 ---------------------------------------
 SCF time:   CPU 63.42s  wall 66.00s 
<S^2> =          0.750000000
 SCF   energy in the final basis set =     -497.5629571049
 Total energy in the final basis set =     -497.5629571049
  
     ##========================================##
     ||                                        ||
     ||              R A S M A N 2             ||
     ||________________________________________||
     ||                                        ||
     ||  Author:                               ||
     ||                                        ||
     ||        David Casanova (2010)           ||
     ||                                        ||
     ##========================================##
  
Setting single-point xc-functionals (if necessary)

  ***************************************************
  *  RAS-CI Dimensions:                             *
  *                                                 *
  *  Active Elec.:   7 ( 4, 3)   Active Orb.:   7   *
  *  Doubly Occ. :  40           Doubly Vir.: 180   *
  *  Frozen Occ. :   0           Frozen Vir.:   0   *
  *                                                 *
  *  Total CI configurations:    432425             * 
  *    Active configurations:      1225             * 
  *      Hole configurations:     78400             * 
  *  Particle configurations:    352800             * 
  *                                                 *
  *   Requested states:       20                    *
  *  Spin multiplicity: Any multiplicity            *
  *                                                 *
  ***************************************************
-----------------------------------------
    Memory requirements of RASCI

 Each CI-vector requires      3.30 MiB 
 Max. subspace vectors           3000      

 Reduced Lists                0.00 MiB 
 Excitation Lists             0.00 MiB 
 Excitation Lists Sign        0.00 MiB 
 CI-space (Max)           10032.09 MiB 
 Integrals                   35.52 MiB 
 Memory required (Max)    10032.10 MiB 
 Memory available          7811.55 MiB 

 Q-Chem warning in module rasman2/ras_mem_check.C, line 162:

 Static memory may be insufficient to store the subspace vectors


    Disk requirements of RASCI

 Fock matrix                  0.79 MiB 
 2-electron integrals        57.41 MiB 
 CI-space                 19794.85 MiB 
 Disk required            19853.05 MiB 
-----------------------------------------
  
RAS1 HF-like energy:           -491.1674104189
 Computing integrals
 Computing J and K matrices
 Computing addressing
 Making amplitude guesses
 
Direct CI diagonalization
 ---------------------------------------------------
 Iter    Rts Conv    Rts Left    Ttl Dev     Max Dev
 ---------------------------------------------------
   1         0          20      0.007093    0.000405
   2         0          20      0.003603    0.000221
   3         0          20      0.002352    0.000178
   4         0          20      0.002240    0.000192
   5         0          20      0.001660    0.000271
   6         0          20      0.001507    0.000312
   7         0          20      0.001585    0.000233
   8         0          20      0.001611    0.000285
   9         0          20      0.001425    0.000284
  10         0          20      0.001515    0.000231
  11         0          20      0.001491    0.000232
  12         1          19      0.001320    0.000192
  13         1          19      0.001272    0.000236
  14         2          18      0.001343    0.000252
  15         5          15      0.000992    0.000181
  16         5          15      0.000856    0.000143
  17         5          15      0.000907    0.000150
  18         8          12      0.000812    0.000118
  19         8          12      0.000610    0.000107
  20         8          12      0.000508    0.000090
  21         8          12      0.000369    0.000070
  22         8          12      0.000309    0.000073
  23         8          12      0.000278    0.000069
  24         8          12      0.000221    0.000052
  25         9          11      0.000184    0.000048
  26        10          10      0.000164    0.000047
  27        11           9      0.000127    0.000036
  28        12           8      0.000101    0.000027
  29        12           8      0.000089    0.000027
  30        12           8      0.000085    0.000032
  31        14           6      0.000078    0.000036
  32        14           6      0.000072    0.000039
  33        15           5      0.000077    0.000049
  34        15           5      0.000085    0.000062
  35        15           5      0.000082    0.000064
  36        15           5      0.000077    0.000062
  37        15           5      0.000074    0.000061
  38        15           5      0.000064    0.000051
  39        17           3      0.000061    0.000035
  40        17           3      0.000047    0.000033
  41        17           3      0.000044    0.000034
  42        17           3      0.000038    0.000030
  43        19           1      0.000031    0.000023
  44        19           1      0.000030    0.000023
  45        19           1      0.000027    0.000019
  46        19           1      0.000021    0.000014
  47        19           1      0.000019    0.000012
  48        19           1      0.000017    0.000010
  49        19           1      0.000014    0.000007
  50        19           1      0.000012    0.000005
  51        19           1      0.000011    0.000004
  52        19           1      0.000009    0.000003
  53        19           1      0.000009    0.000002
  54        19           1      0.000008    0.000002
  55        19           1      0.000008    0.000001
  56        19           1      0.000008    0.000001
  57        19           1      0.000008    0.000001
  58        19           1      0.000008    0.000001
  59        20           0      0.000007    0.000001    Roots Converged
 ---------------------------------------------------
   
**************************************************
 RAS-CI total energy for state   1:   -497.647684868892
  Excitation energy (eV) =  0.000000000000
  State symmetry: A1  (C1       )
  <S^2>      :  0.7500
  Dipole Moment:    0.0001 X     0.0001 Y    -0.0006 Z
 NATURAL OCCUPATION NUMBERS (higher than 1.0E-05)
            1           2           3           4           5           6
    1   2.0000000   2.0000000   2.0000000   2.0000000   2.0000000   2.0000000
            7           8           9          10          11          12
    1   2.0000000   2.0000000   2.0000000   2.0000000   2.0000000   2.0000000
           13          14          15          16          17          18
    1   2.0000000   2.0000000   2.0000000   2.0000000   2.0000000   2.0000000
           19          20          21          22          23          24
    1   2.0000000   2.0000000   2.0000000   2.0000000   2.0000000   2.0000000
           25          26          27          28          29          30
    1   2.0000000   2.0000000   2.0000000   2.0000000   2.0000000   2.0000000
           31          32          33          34          35          36
    1   2.0000000   2.0000000   2.0000000   2.0000000   2.0000000   2.0000000
           37          38          39          40          41          42
    1   2.0000000   1.9981903   1.9929428   1.9929327   1.9423881   1.9322921
           43          44          45          46          47          48
    1   1.9322671   1.0010201   0.0654851   0.0654562   0.0555374   0.0070405
           49          50          51          52          53          54
    1   0.0070274   0.0018582   0.0007079   0.0007077   0.0006136   0.0005271
           55          56          57          58          59          60
    1   0.0003813   0.0003809   0.0003065   0.0002838   0.0002836   0.0001770
           61          62          63          64          65          66
    1   0.0001754   0.0001486   0.0001485   0.0001282   0.0001281   0.0001041
           67          68          69          70          71
    1   0.0001041   0.0000983   0.0000709   0.0000123   0.0000123

 Head-Gordon Nu:    1.42
 Head-Gordon Nu_nl: 1.09
 Created directory ./qchem73267/plots

  Amplitudes : 
  
 | HOLE  | ALPHA   | BETA    | PART  |    AMPLITUDE 
--------------------------------------------------
 |       | 1111000 | 1110000 |       |     9.3297728986922E-01
 |       | 1110010 | 1011000 |       |    -1.0515934813252E-01
 |       | 1110001 | 1101000 |       |    -1.0498413233709E-01
--------------------------------------------------
*** Contributions RASCI wfn    Active:  95.87
                                 Hole:   1.63
                                 Part:   2.49

      Mulliken population analysis 
 ---------------------------------------------------
   Atom    Charge (a.u.)   Spin (a.u.)  
 ---------------------------------------------------
   1  C    0.013571       -0.038350 
   2  C    0.020530        0.200858 
   3  C   -0.090603       -0.033612 
   4  C   -0.032154        0.001142 
   5  C   -0.090833       -0.033552 
   6  C    0.020871        0.200444 
   7  H    0.011489        0.001473 
   8  C    0.020930        0.201498 
   9  C    0.013162       -0.038556 
  10  C    0.021102        0.201994 
  11  C   -0.090646       -0.033673 
  12  C    0.021095        0.201413 
  13  C    0.013147       -0.038456 
  14  C    0.020832        0.200890 
  15  H    0.023342       -0.000306 
  16  H    0.011471        0.001477 
  17  H    0.011480        0.001482 
  18  H    0.023568       -0.000307 
  19  H    0.011303        0.001487 
  20  H    0.011534        0.001477 
  21  H    0.011278        0.001483 
  22  H    0.023528       -0.000307 
 ---------------------------------------------------
   Sum:   -0.000000        1.000000 
 ---------------------------------------------------
 
*** Unpaired Electrons
 Yamaguchi Nd:         1.81
  
**************************************************
 RAS-CI total energy for state   2:   -497.545899196440
  Excitation energy (eV) =  2.769729066820
  State symmetry: A1  (C1       )
  <S^2>      :  0.7500
  Dipole Moment:   -0.0174 X     0.0032 Y    -0.0007 Z
  Trans. Moment:   -0.0298 X     0.0114 Y    -0.0000 Z
  Strength   :  0.000069
  Natural transition orbitals ( 1 -> 2 ):
   e-/hole pair  1 alpha:  ampl =  0.627651 ( 39.4%)   [7 : 8]
   e-/hole pair  2 alpha:  ampl =  0.088595 (  0.8%)   [6 : 9]
   e-/hole pair  1 beta :  ampl =  0.628395 ( 39.5%)   [7 : 8]
   e-/hole pair  2 beta :  ampl =  0.088991 (  0.8%)   [6 : 9]
   Sum of square amplitudes: 0.83

 NATURAL OCCUPATION NUMBERS (higher than 1.0E-05)
            1           2           3           4           5           6
    1   2.0000000   2.0000000   2.0000000   2.0000000   2.0000000   2.0000000
            7           8           9          10          11          12
    1   2.0000000   2.0000000   2.0000000   2.0000000   2.0000000   2.0000000
           13          14          15          16          17          18
    1   2.0000000   2.0000000   2.0000000   2.0000000   2.0000000   2.0000000
           19          20          21          22          23          24
    1   2.0000000   2.0000000   2.0000000   2.0000000   2.0000000   2.0000000
           25          26          27          28          29          30
    1   2.0000000   2.0000000   2.0000000   2.0000000   2.0000000   2.0000000
           31          32          33          34          35          36
    1   2.0000000   2.0000000   2.0000000   2.0000000   2.0000000   2.0000000
           37          38          39          40          41          42
    1   2.0000000   1.9962352   1.9848224   1.9790869   1.9340081   1.9291907
           43          44          45          46          47          48
    1   1.4797057   1.0057415   0.5175024   0.0688563   0.0630454   0.0191119
           49          50          51          52          53          54
    1   0.0141950   0.0031812   0.0006547   0.0005705   0.0005673   0.0004419
           55          56          57          58          59          60
    1   0.0004250   0.0003527   0.0003479   0.0002812   0.0002485   0.0002108
           61          62          63          64          65          66
    1   0.0001870   0.0001585   0.0001449   0.0001221   0.0001158   0.0001126
           67          68          69          70          71          72
    1   0.0001014   0.0000791   0.0000730   0.0000210   0.0000199   0.0000133
           73
    1   0.0000114

 Head-Gordon Nu:    2.38
 Head-Gordon Nu_nl: 2.25

  Amplitudes : 
  
 | HOLE  | ALPHA   | BETA    | PART  |    AMPLITUDE 
--------------------------------------------------
 |       | 1111000 | 1101000 |       |    -1.8671010884322E-01
 |       | 1111000 | 1011000 |       |    -6.1851522617610E-01
 |       | 1110010 | 1110000 |       |     6.4042392486652E-01
--------------------------------------------------
*** Contributions RASCI wfn    Active:  90.14
                                 Hole:   4.73
                                 Part:   5.13

      Mulliken population analysis 
 ---------------------------------------------------
   Atom    Charge (a.u.)   Spin (a.u.)  
 ---------------------------------------------------
   1  C    0.015607        0.140300 
   2  C    0.018571       -0.037372 
   3  C   -0.099431        0.224282 
   4  C   -0.030394       -0.039674 
   5  C   -0.092079       -0.001143 
   6  C    0.025100        0.092869 
   7  H    0.011292        0.000688 
   8  C    0.025047        0.115459 
   9  C    0.014112       -0.018363 
  10  C    0.025991        0.132057 
  11  C   -0.098495        0.196114 
  12  C    0.019020       -0.043199 
  13  C    0.015374        0.162932 
  14  C    0.024173        0.070797 
  15  H    0.023055        0.001159 
  16  H    0.011458       -0.000292 
  17  H    0.011197        0.000937 
  18  H    0.023544       -0.000119 
  19  H    0.010996        0.001064 
  20  H    0.011375        0.000511 
  21  H    0.011281       -0.000347 
  22  H    0.023204        0.001340 
 ---------------------------------------------------
   Sum:   -0.000000        1.000000 
 ---------------------------------------------------
 
*** Unpaired Electrons
 Yamaguchi Nd:         3.22
  
**************************************************
 RAS-CI total energy for state   3:   -497.545868574535
  Excitation energy (eV) =  2.770562331252
  State symmetry: A1  (C1       )
  <S^2>      :  0.7500
  Dipole Moment:    0.0178 X    -0.0034 Y    -0.0007 Z
  Trans. Moment:    0.0112 X     0.0302 Y     0.0000 Z
  Strength   :  0.000070
  Natural transition orbitals ( 1 -> 3 ):
   e-/hole pair  1 alpha:  ampl =  0.627546 ( 39.4%)   [7 : 8]
   e-/hole pair  2 alpha:  ampl =  0.089659 (  0.8%)   [6 : 9]
   e-/hole pair  1 beta :  ampl =  0.628437 ( 39.5%)   [7 : 8]
   e-/hole pair  2 beta :  ampl =  0.090142 (  0.8%)   [6 : 9]
   Sum of square amplitudes: 0.83

 NATURAL OCCUPATION NUMBERS (higher than 1.0E-05)
            1           2           3           4           5           6
    1   2.0000000   2.0000000   2.0000000   2.0000000   2.0000000   2.0000000
            7           8           9          10          11          12
    1   2.0000000   2.0000000   2.0000000   2.0000000   2.0000000   2.0000000
           13          14          15          16          17          18
    1   2.0000000   2.0000000   2.0000000   2.0000000   2.0000000   2.0000000
           19          20          21          22          23          24
    1   2.0000000   2.0000000   2.0000000   2.0000000   2.0000000   2.0000000
           25          26          27          28          29          30
    1   2.0000000   2.0000000   2.0000000   2.0000000   2.0000000   2.0000000
           31          32          33          34          35          36
    1   2.0000000   2.0000000   2.0000000   2.0000000   2.0000000   2.0000000
           37          38          39          40          41          42
    1   2.0000000   1.9961686   1.9825749   1.9807342   1.9334607   1.9313784
           43          44          45          46          47          48
    1   1.4778321   1.0058836   0.5194036   0.0666971   0.0635502   0.0176927
           49          50          51          52          53          54
    1   0.0161233   0.0031637   0.0006570   0.0005776   0.0005687   0.0004645
           55          56          57          58          59          60
    1   0.0003957   0.0003700   0.0003233   0.0003099   0.0002454   0.0002110
           61          62          63          64          65          66
    1   0.0001835   0.0001525   0.0001486   0.0001291   0.0001204   0.0001099
           67          68          69          70          71          72
    1   0.0000930   0.0000823   0.0000727   0.0000234   0.0000180   0.0000134
           73
    1   0.0000105

 Head-Gordon Nu:    2.38
 Head-Gordon Nu_nl: 2.26

  Amplitudes : 
  
 | HOLE  | ALPHA   | BETA    | PART  |    AMPLITUDE 
--------------------------------------------------
 |       | 1111000 | 1101000 |       |    -6.1841711248552E-01
 |       | 1111000 | 1011000 |       |     1.8663398515878E-01
 |       | 1110001 | 1110000 |       |     6.4010938796585E-01
--------------------------------------------------
*** Contributions RASCI wfn    Active:  90.14
                                 Hole:   4.74
                                 Part:   5.12

      Mulliken population analysis 
 ---------------------------------------------------
   Atom    Charge (a.u.)   Spin (a.u.)  
 ---------------------------------------------------
   1  C    0.014980        0.049948 
   2  C    0.026681        0.148118 
   3  C   -0.093714        0.054969 
   4  C   -0.030412       -0.039686 
   5  C   -0.101558        0.280626 
   6  C    0.020835        0.017607 
   7  H    0.011368        0.000167 
   8  C    0.020941       -0.005636 
   9  C    0.015778        0.207969 
  10  C    0.020362       -0.022228 
  11  C   -0.094728        0.083234 
  12  C    0.027373        0.153631 
  13  C    0.014422        0.027289 
  14  C    0.021639        0.039217 
  15  H    0.023205        0.000431 
  16  H    0.011164        0.001149 
  17  H    0.011445       -0.000087 
  18  H    0.023170        0.001702 
  19  H    0.011292       -0.000212 
  20  H    0.011374        0.000341 
  21  H    0.010955        0.001204 
  22  H    0.023429        0.000248 
 ---------------------------------------------------
   Sum:   -0.000000        1.000000 
 ---------------------------------------------------
 
*** Unpaired Electrons
 Yamaguchi Nd:         3.22
  
**************************************************
 RAS-CI total energy for state   4:   -497.535489501890
  Excitation energy (eV) =  3.052991267461
  State symmetry: A1  (C1       )
  <S^2>      :  0.7500
  Dipole Moment:    0.0004 X    -0.0003 Y    -0.0006 Z
  Trans. Moment:    0.0002 X     0.0001 Y    -0.0000 Z
  Strength   :  0.000000
  Natural transition orbitals ( 1 -> 4 ):
   e-/hole pair  1 alpha:  ampl =  0.672573 ( 45.2%)   [7 : 8]
   e-/hole pair  2 alpha:  ampl =  0.088602 (  0.8%)   [6 : 9]
   e-/hole pair  1 beta :  ampl =  0.557722 ( 31.1%)   [7 : 8]
   e-/hole pair  2 beta :  ampl =  0.083865 (  0.7%)   [6 : 9]
   Sum of square amplitudes: 0.80

 NATURAL OCCUPATION NUMBERS (higher than 1.0E-05)
            1           2           3           4           5           6
    1   2.0000000   2.0000000   2.0000000   2.0000000   2.0000000   2.0000000
            7           8           9          10          11          12
    1   2.0000000   2.0000000   2.0000000   2.0000000   2.0000000   2.0000000
           13          14          15          16          17          18
    1   2.0000000   2.0000000   2.0000000   2.0000000   2.0000000   2.0000000
           19          20          21          22          23          24
    1   2.0000000   2.0000000   2.0000000   2.0000000   2.0000000   2.0000000
           25          26          27          28          29          30
    1   2.0000000   2.0000000   2.0000000   2.0000000   2.0000000   2.0000000
           31          32          33          34          35          36
    1   2.0000000   2.0000000   2.0000000   2.0000000   2.0000000   2.0000000
           37          38          39          40          41          42
    1   2.0000000   1.9907723   1.9773117   1.9772016   1.9085917   1.9085628
           43          44          45          46          47          48
    1   1.5836327   0.8569731   0.5761737   0.0827512   0.0827095   0.0214074
           49          50          51          52          53          54
    1   0.0213142   0.0069130   0.0006350   0.0006343   0.0005652   0.0004760
           55          56          57          58          59          60
    1   0.0004756   0.0004073   0.0004073   0.0003276   0.0003203   0.0002562
           61          62          63          64          65          66
    1   0.0001838   0.0001837   0.0001127   0.0001030   0.0001029   0.0001009
           67          68          69          70          71          72
    1   0.0000904   0.0000904   0.0000598   0.0000292   0.0000292   0.0000222
           73          74
    1   0.0000113   0.0000113

 Head-Gordon Nu:    2.31
 Head-Gordon Nu_nl: 2.19

  Amplitudes : 
  
 | HOLE  | ALPHA   | BETA    | PART  |    AMPLITUDE 
--------------------------------------------------
 |       | 1111000 | 0111000 |       |    -5.7005578197809E-01
 |       | 1110100 | 1110000 |       |     6.8736170795114E-01
 |       | 1101100 | 1101000 |       |    -1.0634969688208E-01
 |       | 1011100 | 1011000 |       |    -1.0698830064607E-01
--------------------------------------------------
*** Contributions RASCI wfn    Active:  88.28
                                 Hole:   5.75
                                 Part:   5.97

      Mulliken population analysis 
 ---------------------------------------------------
   Atom    Charge (a.u.)   Spin (a.u.)  
 ---------------------------------------------------
   1  C   -0.008595        0.169174 
   2  C    0.038081        0.022540 
   3  C   -0.092302        0.010220 
   4  C   -0.064909        0.318091 
   5  C   -0.092511        0.009892 
   6  C    0.038386        0.023076 
   7  H    0.011502        0.000250 
   8  C    0.038492        0.023060 
   9  C   -0.008997        0.170424 
  10  C    0.038705        0.022766 
  11  C   -0.092358        0.010281 
  12  C    0.038654        0.022571 
  13  C   -0.009005        0.169517 
  14  C    0.038383        0.023144 
  15  H    0.022977        0.001250 
  16  H    0.011485        0.000245 
  17  H    0.011493        0.000250 
  18  H    0.023202        0.001257 
  19  H    0.011317        0.000248 
  20  H    0.011546        0.000250 
  21  H    0.011293        0.000246 
  22  H    0.023163        0.001251 
 ---------------------------------------------------
   Sum:   -0.000000        1.000000 
 ---------------------------------------------------
 
*** Unpaired Electrons
 Yamaguchi Nd:         3.34
  
**************************************************
 RAS-CI total energy for state   5:   -497.496940146106
  Excitation energy (eV) =  4.101972608849
  State symmetry: A1  (C1       )
  <S^2>      :  0.7500
  Dipole Moment:   -0.0003 X     0.0007 Y    -0.0006 Z
  Trans. Moment:    0.0012 X     0.0016 Y    -0.0001 Z
  Strength   :  0.000000
  Natural transition orbitals ( 1 -> 5 ):
   e-/hole pair  1 alpha:  ampl =  0.585428 ( 34.3%)   [7 : 8]
   e-/hole pair  2 alpha:  ampl =  0.045300 (  0.2%)   [6 : 9]
   e-/hole pair  1 beta :  ampl =  0.690763 ( 47.7%)   [7 : 8]
   e-/hole pair  2 beta :  ampl =  0.059601 (  0.4%)   [6 : 9]
   Sum of square amplitudes: 0.83

 NATURAL OCCUPATION NUMBERS (higher than 1.0E-05)
            1           2           3           4           5           6
    1   2.0000000   2.0000000   2.0000000   2.0000000   2.0000000   2.0000000
            7           8           9          10          11          12
    1   2.0000000   2.0000000   2.0000000   2.0000000   2.0000000   2.0000000
           13          14          15          16          17          18
    1   2.0000000   2.0000000   2.0000000   2.0000000   2.0000000   2.0000000
           19          20          21          22          23          24
    1   2.0000000   2.0000000   2.0000000   2.0000000   2.0000000   2.0000000
           25          26          27          28          29          30
    1   2.0000000   2.0000000   2.0000000   2.0000000   2.0000000   2.0000000
           31          32          33          34          35          36
    1   2.0000000   2.0000000   2.0000000   2.0000000   2.0000000   2.0000000
           37          38          39          40          41          42
    1   2.0000000   1.9962171   1.9913375   1.9913202   1.9343086   1.9342810
           43          44          45          46          47          48
    1   1.4011787   1.1536439   0.4403390   0.0659207   0.0658719   0.0072994
           49          50          51          52          53          54
    1   0.0072932   0.0033418   0.0008784   0.0008781   0.0006960   0.0006950
           55          56          57          58          59          60
    1   0.0006422   0.0004857   0.0004181   0.0003557   0.0003553   0.0003387
           61          62          63          64          65          66
    1   0.0002838   0.0002836   0.0002829   0.0001702   0.0001701   0.0001614
           67          68          69          70          71          72
    1   0.0001434   0.0001433   0.0000937   0.0000298   0.0000256   0.0000255
           73          74          75          76
    1   0.0000167   0.0000166   0.0000116   0.0000116

 Head-Gordon Nu:    2.20
 Head-Gordon Nu_nl: 2.19

  Amplitudes : 
  
 | HOLE  | ALPHA   | BETA    | PART  |    AMPLITUDE 
--------------------------------------------------
 |       | 1111000 | 0111000 |       |     7.0799523861654E-01
 |       | 1110100 | 1110000 |       |     5.9723625113215E-01
--------------------------------------------------
*** Contributions RASCI wfn    Active:  94.41
                                 Hole:   2.43
                                 Part:   3.16

      Mulliken population analysis 
 ---------------------------------------------------
   Atom    Charge (a.u.)   Spin (a.u.)  
 ---------------------------------------------------
   1  C    0.031463        0.123917 
   2  C    0.002753        0.014593 
   3  C   -0.085156        0.037964 
   4  C    0.004929        0.425461 
   5  C   -0.085346        0.038221 
   6  C    0.003164        0.014439 
   7  H    0.011369        0.000126 
   8  C    0.003138        0.014251 
   9  C    0.031093        0.123239 
  10  C    0.003228        0.014278 
  11  C   -0.085259        0.037789 
  12  C    0.003341        0.014594 
  13  C    0.031062        0.123662 
  14  C    0.002988        0.014293 
  15  H    0.023452        0.000850 
  16  H    0.011350        0.000128 
  17  H    0.011360        0.000125 
  18  H    0.023679        0.000843 
  19  H    0.011182        0.000126 
  20  H    0.011413        0.000125 
  21  H    0.011158        0.000128 
  22  H    0.023638        0.000846 
 ---------------------------------------------------
   Sum:   -0.000000        1.000000 
 ---------------------------------------------------
 
*** Unpaired Electrons
 Yamaguchi Nd:         3.10
  
**************************************************
 RAS-CI total energy for state   6:   -497.471906338174
  Excitation energy (eV) =  4.783177181298
  State symmetry: A1  (C1       )
  <S^2>      :  0.7500
  Dipole Moment:    0.0215 X    -0.0713 Y    -0.0007 Z
  Trans. Moment:    0.2912 X    -1.5050 Y     0.0004 Z
  Strength   :  0.275355
  Natural transition orbitals ( 1 -> 6 ):
   e-/hole pair  1 alpha:  ampl =  0.622468 ( 38.7%)   [7 : 8]
   e-/hole pair  2 alpha:  ampl =  0.156654 (  2.5%)   [6 : 9]
   e-/hole pair  1 beta :  ampl =  0.619959 ( 38.4%)   [7 : 8]
   e-/hole pair  2 beta :  ampl =  0.155008 (  2.4%)   [6 : 9]
   Sum of square amplitudes: 0.84

 NATURAL OCCUPATION NUMBERS (higher than 1.0E-05)
            1           2           3           4           5           6
    1   2.0000000   2.0000000   2.0000000   2.0000000   2.0000000   2.0000000
            7           8           9          10          11          12
    1   2.0000000   2.0000000   2.0000000   2.0000000   2.0000000   2.0000000
           13          14          15          16          17          18
    1   2.0000000   2.0000000   2.0000000   2.0000000   2.0000000   2.0000000
           19          20          21          22          23          24
    1   2.0000000   2.0000000   2.0000000   2.0000000   2.0000000   2.0000000
           25          26          27          28          29          30
    1   2.0000000   2.0000000   2.0000000   2.0000000   2.0000000   2.0000000
           31          32          33          34          35          36
    1   2.0000000   2.0000000   2.0000000   2.0000000   2.0000000   2.0000000
           37          38          39          40          41          42
    1   2.0000000   1.9954510   1.9883767   1.9881870   1.9051713   1.8844983
           43          44          45          46          47          48
    1   1.5122630   1.0072037   0.4908604   0.1121162   0.0847393   0.0097583
           49          50          51          52          53          54
    1   0.0094598   0.0034458   0.0010717   0.0010628   0.0009549   0.0006936
           55          56          57          58          59          60
    1   0.0005799   0.0005439   0.0004490   0.0004112   0.0003699   0.0003443
           61          62          63          64          65          66
    1   0.0002961   0.0002675   0.0002564   0.0001846   0.0001827   0.0001789
           67          68          69          70          71          72
    1   0.0001598   0.0001390   0.0001151   0.0000533   0.0000409   0.0000278
           73          74          75
    1   0.0000165   0.0000121   0.0000110

 Head-Gordon Nu:    2.44
 Head-Gordon Nu_nl: 2.25

  Amplitudes : 
  
 | HOLE  | ALPHA   | BETA    | PART  |    AMPLITUDE 
--------------------------------------------------
 |       | 1111000 | 1101000 |       |     6.0211476918281E-01
 |       | 1111000 | 1011000 |       |     1.5693290365650E-01
 |       | 1111000 | 1010100 |       |     1.5090509858072E-01
 |       | 1110010 | 1110000 |       |     2.7386336060116E-01
 |       | 1110001 | 1110000 |       |     5.6248265089128E-01
 |       | 0111010 | 1110000 |       |    -1.4264309857073E-01
--------------------------------------------------
*** Contributions RASCI wfn    Active:  93.03
                                 Hole:   3.29
                                 Part:   3.68

      Mulliken population analysis 
 ---------------------------------------------------
   Atom    Charge (a.u.)   Spin (a.u.)  
 ---------------------------------------------------
   1  C    0.021129       -0.018089 
   2  C    0.016724        0.204462 
   3  C   -0.103271        0.111326 
   4  C   -0.024778       -0.047540 
   5  C   -0.104441        0.118932 
   6  C    0.017213        0.197078 
   7  H    0.011160        0.001527 
   8  C    0.020387        0.007523 
   9  C    0.027124        0.092144 
  10  C    0.018484        0.100969 
  11  C   -0.091298        0.013704 
  12  C    0.018360        0.115205 
  13  C    0.026600        0.083690 
  14  C    0.020168        0.014526 
  15  H    0.023410       -0.000159 
  16  H    0.011135        0.001578 
  17  H    0.011406        0.000024 
  18  H    0.023416        0.000816 
  19  H    0.011138        0.000673 
  20  H    0.011446        0.000086 
  21  H    0.011095        0.000785 
  22  H    0.023392        0.000741 
 ---------------------------------------------------
   Sum:   -0.000000        1.000000 
 ---------------------------------------------------
 
*** Unpaired Electrons
 Yamaguchi Nd:         3.37
  
**************************************************
 RAS-CI total energy for state   7:   -497.471887943234
  Excitation energy (eV) =  4.783677733062
  State symmetry: A1  (C1       )
  <S^2>      :  0.7500
  Dipole Moment:   -0.0213 X     0.0719 Y    -0.0007 Z
  Trans. Moment:    1.5061 X     0.2905 Y    -0.0001 Z
  Strength   :  0.275728
  Natural transition orbitals ( 1 -> 7 ):
   e-/hole pair  1 alpha:  ampl =  0.622428 ( 38.7%)   [7 : 8]
   e-/hole pair  2 alpha:  ampl =  0.155276 (  2.4%)   [6 : 9]
   e-/hole pair  1 beta :  ampl =  0.620120 ( 38.5%)   [7 : 8]
   e-/hole pair  2 beta :  ampl =  0.153723 (  2.4%)   [6 : 9]
   Sum of square amplitudes: 0.84

 NATURAL OCCUPATION NUMBERS (higher than 1.0E-05)
            1           2           3           4           5           6
    1   2.0000000   2.0000000   2.0000000   2.0000000   2.0000000   2.0000000
            7           8           9          10          11          12
    1   2.0000000   2.0000000   2.0000000   2.0000000   2.0000000   2.0000000
           13          14          15          16          17          18
    1   2.0000000   2.0000000   2.0000000   2.0000000   2.0000000   2.0000000
           19          20          21          22          23          24
    1   2.0000000   2.0000000   2.0000000   2.0000000   2.0000000   2.0000000
           25          26          27          28          29          30
    1   2.0000000   2.0000000   2.0000000   2.0000000   2.0000000   2.0000000
           31          32          33          34          35          36
    1   2.0000000   2.0000000   2.0000000   2.0000000   2.0000000   2.0000000
           37          38          39          40          41          42
    1   2.0000000   1.9952166   1.9888457   1.9879381   1.8996046   1.8904499
           43          44          45          46          47          48
    1   1.5117332   1.0059802   0.4947208   0.1025843   0.0917627   0.0102459
           49          50          51          52          53          54
    1   0.0088827   0.0036248   0.0010870   0.0010654   0.0008244   0.0006668
           55          56          57          58          59          60
    1   0.0005948   0.0005585   0.0004532   0.0004222   0.0004121   0.0003370
           61          62          63          64          65          66
    1   0.0002768   0.0002708   0.0002570   0.0001936   0.0001911   0.0001696
           67          68          69          70          71          72
    1   0.0001584   0.0001437   0.0001222   0.0000531   0.0000367   0.0000301
           73          74          75
    1   0.0000154   0.0000114   0.0000104

 Head-Gordon Nu:    2.44
 Head-Gordon Nu_nl: 2.25

  Amplitudes : 
  
 | HOLE  | ALPHA   | BETA    | PART  |    AMPLITUDE 
--------------------------------------------------
 |       | 1111000 | 1101000 |       |    -1.5686834356187E-01
 |       | 1111000 | 1100100 |       |    -1.4929658271501E-01
 |       | 1111000 | 1011000 |       |     6.0211195838055E-01
 |       | 1110010 | 1110000 |       |     5.6234718245604E-01
 |       | 1110001 | 1110000 |       |    -2.7374844620639E-01
 |       | 0111001 | 1110000 |       |     1.4352545959254E-01
--------------------------------------------------
*** Contributions RASCI wfn    Active:  93.03
                                 Hole:   3.29
                                 Part:   3.68

      Mulliken population analysis 
 ---------------------------------------------------
   Atom    Charge (a.u.)   Spin (a.u.)  
 ---------------------------------------------------
   1  C    0.029202        0.122999 
   2  C    0.019699        0.008571 
   3  C   -0.095797        0.051328 
   4  C   -0.024844       -0.047552 
   5  C   -0.095132        0.043541 
   6  C    0.020002        0.016153 
   7  H    0.011427        0.000030 
   8  C    0.016769        0.205951 
   9  C    0.022552        0.013280 
  10  C    0.018880        0.112491 
  11  C   -0.107776        0.149046 
  12  C    0.019159        0.097950 
  13  C    0.022989        0.021407 
  14  C    0.016697        0.198761 
  15  H    0.023127        0.001091 
  16  H    0.011415       -0.000022 
  17  H    0.011163        0.001535 
  18  H    0.023573        0.000118 
  19  H    0.011076        0.000887 
  20  H    0.011228        0.001471 
  21  H    0.011070        0.000773 
  22  H    0.023517        0.000190 
 ---------------------------------------------------
   Sum:   -0.000000        1.000000 
 ---------------------------------------------------
 
*** Unpaired Electrons
 Yamaguchi Nd:         3.37
  
**************************************************
 RAS-CI total energy for state   8:   -497.454356373406
  Excitation energy (eV) =  5.260736020059
  State symmetry: A1  (C1       )
  <S^2>      :  0.7500
  Dipole Moment:    0.0154 X    -0.0063 Y    -0.0006 Z
  Trans. Moment:    0.0092 X     0.0384 Y    -0.0000 Z
  Strength   :  0.000201
  Natural transition orbitals ( 1 -> 8 ):
   e-/hole pair  1 alpha:  ampl =  0.395906 ( 15.7%)   [7 : 8]
   e-/hole pair  2 alpha:  ampl =  0.219016 (  4.8%)   [6 : 9]
   e-/hole pair  1 beta :  ampl =  0.508916 ( 25.9%)   [7 : 8]
   e-/hole pair  2 beta :  ampl =  0.241818 (  5.8%)   [6 : 9]
   Sum of square amplitudes: 0.59

 NATURAL OCCUPATION NUMBERS (higher than 1.0E-05)
            1           2           3           4           5           6
    1   2.0000000   2.0000000   2.0000000   2.0000000   2.0000000   2.0000000
            7           8           9          10          11          12
    1   2.0000000   2.0000000   2.0000000   2.0000000   2.0000000   2.0000000
           13          14          15          16          17          18
    1   2.0000000   2.0000000   2.0000000   2.0000000   2.0000000   2.0000000
           19          20          21          22          23          24
    1   2.0000000   2.0000000   2.0000000   2.0000000   2.0000000   2.0000000
           25          26          27          28          29          30
    1   2.0000000   2.0000000   2.0000000   2.0000000   2.0000000   2.0000000
           31          32          33          34          35          36
    1   2.0000000   2.0000000   2.0000000   2.0000000   2.0000000   2.0000000
           37          38          39          40          41          42
    1   2.0000000   1.9915288   1.9897034   1.9330187   1.7213959   1.6958090
           43          44          45          46          47          48
    1   1.6909542   1.1200513   0.3115598   0.2733909   0.1846016   0.0693930
           49          50          51          52          53          54
    1   0.0081881   0.0064587   0.0004313   0.0004208   0.0004124   0.0003878
           55          56          57          58          59          60
    1   0.0003160   0.0002995   0.0002358   0.0002162   0.0001845   0.0001444
           61          62          63          64          65          66
    1   0.0001312   0.0001214   0.0001132   0.0001018   0.0000977   0.0000631
           67          68          69          70          71          72
    1   0.0000557   0.0000542   0.0000496   0.0000346   0.0000138   0.0000132

 Head-Gordon Nu:    2.72
 Head-Gordon Nu_nl: 2.39

  Amplitudes : 
  
 | HOLE  | ALPHA   | BETA    | PART  |    AMPLITUDE 
--------------------------------------------------
 |       | 1111000 | 1100010 |       |    -1.0889718597136E-01
 |       | 1111000 | 1010100 |       |    -1.9704868657318E-01
 |       | 1111000 | 1010001 |       |    -1.1334565277137E-01
 |       | 1110100 | 1011000 |       |    -2.6920185324766E-01
 |       | 1110010 | 1101000 |       |    -2.2426846772248E-01
 |       | 1110010 | 0111000 |       |    -2.6187979424380E-01
 |       | 1110001 | 1011000 |       |    -2.3198178689776E-01
 |       | 1101010 | 1110000 |       |    -1.1537128175105E-01
 |       | 1011001 | 1110000 |       |    -1.1863613412569E-01
 |       | 0111010 | 1110000 |       |    -1.6940971882176E-01
 |  39   | 1111000 | 1111000 |       |     5.1148382815355E-01
 |  40   | 1111000 | 1111000 |       |     1.2906685882931E-01
 |       | 1110000 | 1110000 |  55   |    -3.9646590021780E-01
--------------------------------------------------
*** Contributions RASCI wfn    Active:  45.53
                                 Hole:  33.20
                                 Part:  21.27

      Mulliken population analysis 
 ---------------------------------------------------
   Atom    Charge (a.u.)   Spin (a.u.)  
 ---------------------------------------------------
   1  C    0.017587        0.084073 
   2  C    0.001534       -0.038523 
   3  C   -0.084268        0.112264 
   4  C   -0.043932       -0.011894 
   5  C   -0.069447        0.110193 
   6  C    0.017495        0.073334 
   7  H    0.011078        0.000618 
   8  C    0.027731        0.099928 
   9  C    0.017493        0.217084 
  10  C    0.025843        0.085407 
  11  C   -0.086289        0.112076 
  12  C    0.003067       -0.037141 
  13  C    0.017152        0.098832 
  14  C    0.020424        0.088737 
  15  H    0.023148        0.000689 
  16  H    0.011263       -0.000299 
  17  H    0.010942        0.000856 
  18  H    0.022957        0.001761 
  19  H    0.010791        0.000738 
  20  H    0.011086        0.000747 
  21  H    0.011059       -0.000286 
  22  H    0.023287        0.000807 
 ---------------------------------------------------
   Sum:   -0.000000        1.000000 
 ---------------------------------------------------
 
*** Unpaired Electrons
 Yamaguchi Nd:         4.17
  
**************************************************
 RAS-CI total energy for state   9:   -497.454344998904
  Excitation energy (eV) =  5.261045536003
  State symmetry: A1  (C1       )
  <S^2>      :  0.7500
  Dipole Moment:   -0.0157 X     0.0069 Y    -0.0006 Z
  Trans. Moment:    0.0376 X    -0.0096 Y    -0.0000 Z
  Strength   :  0.000194
  Natural transition orbitals ( 1 -> 9 ):
   e-/hole pair  1 alpha:  ampl =  0.395577 ( 15.6%)   [7 : 8]
   e-/hole pair  2 alpha:  ampl =  0.229683 (  5.3%)   [6 : 9]
   e-/hole pair  1 beta :  ampl =  0.508697 ( 25.9%)   [7 : 8]
   e-/hole pair  2 beta :  ampl =  0.251928 (  6.3%)   [6 : 9]
   Sum of square amplitudes: 0.59

 NATURAL OCCUPATION NUMBERS (higher than 1.0E-05)
            1           2           3           4           5           6
    1   2.0000000   2.0000000   2.0000000   2.0000000   2.0000000   2.0000000
            7           8           9          10          11          12
    1   2.0000000   2.0000000   2.0000000   2.0000000   2.0000000   2.0000000
           13          14          15          16          17          18
    1   2.0000000   2.0000000   2.0000000   2.0000000   2.0000000   2.0000000
           19          20          21          22          23          24
    1   2.0000000   2.0000000   2.0000000   2.0000000   2.0000000   2.0000000
           25          26          27          28          29          30
    1   2.0000000   2.0000000   2.0000000   2.0000000   2.0000000   2.0000000
           31          32          33          34          35          36
    1   2.0000000   2.0000000   2.0000000   2.0000000   2.0000000   2.0000000
           37          38          39          40          41          42
    1   2.0000000   1.9948722   1.9863018   1.8902844   1.8251207   1.6913660
           43          44          45          46          47          48
    1   1.6333219   1.1207859   0.3627212   0.2059530   0.1585223   0.1124332
           49          50          51          52          53          54
    1   0.0098360   0.0045525   0.0004415   0.0004202   0.0003859   0.0003655
           55          56          57          58          59          60
    1   0.0003496   0.0002650   0.0002387   0.0002089   0.0001889   0.0001699
           61          62          63          64          65          66
    1   0.0001537   0.0001241   0.0001047   0.0000926   0.0000787   0.0000674
           67          68          69          70          71          72
    1   0.0000592   0.0000568   0.0000489   0.0000332   0.0000146   0.0000120

 Head-Gordon Nu:    2.72
 Head-Gordon Nu_nl: 2.37

  Amplitudes : 
  
 | HOLE  | ALPHA   | BETA    | PART  |    AMPLITUDE 
--------------------------------------------------
 |       | 1111000 | 1100100 |       |    -2.0090940491223E-01
 |       | 1111000 | 1100001 |       |     1.0864152024526E-01
 |       | 1111000 | 1010010 |       |    -1.1043472228486E-01
 |       | 1110100 | 1101000 |       |    -2.7747449835492E-01
 |       | 1110010 | 1011000 |       |    -2.2805297560401E-01
 |       | 1110001 | 1101000 |       |     2.2739771344922E-01
 |       | 1110001 | 0111000 |       |    -2.5461330849742E-01
 |       | 1101001 | 1110000 |       |     1.1875619320492E-01
 |       | 1011010 | 1110000 |       |    -1.1761825331875E-01
 |       | 0111001 | 1110000 |       |    -1.6565147044567E-01
 |  39   | 1111000 | 1111000 |       |    -1.2908664310399E-01
 |  40   | 1111000 | 1111000 |       |     5.1119768220263E-01
 |       | 1110000 | 1110000 |  56   |     3.9617771697273E-01
--------------------------------------------------
*** Contributions RASCI wfn    Active:  45.56
                                 Hole:  33.19
                                 Part:  21.26

      Mulliken population analysis 
 ---------------------------------------------------
   Atom    Charge (a.u.)   Spin (a.u.)  
 ---------------------------------------------------
   1  C    0.017873        0.183167 
   2  C    0.029714        0.129508 
   3  C   -0.075611        0.110652 
   4  C   -0.043891       -0.011854 
   5  C   -0.090906        0.113364 
   6  C    0.014527        0.017586 
   7  H    0.011122        0.000175 
   8  C    0.004416       -0.009748 
   9  C    0.017087        0.049050 
  10  C    0.006559        0.004569 
  11  C   -0.073673        0.110542 
  12  C    0.029319        0.127786 
  13  C    0.017392        0.168044 
  14  C    0.011582        0.001703 
  15  H    0.022838        0.001489 
  16  H    0.010899        0.001093 
  17  H    0.011241       -0.000068 
  18  H    0.023482        0.000405 
  19  H    0.011037        0.000050 
  20  H    0.011204        0.000042 
  21  H    0.010718        0.001079 
  22  H    0.023072        0.001366 
 ---------------------------------------------------
   Sum:   -0.000000        1.000000 
 ---------------------------------------------------
 
*** Unpaired Electrons
 Yamaguchi Nd:         4.17
  
**************************************************
 RAS-CI total energy for state  10:   -497.446179854063
  Excitation energy (eV) =  5.483230431549
  State symmetry: A1  (C1       )
  <S^2>      :  0.7500
  Dipole Moment:    0.0003 X    -0.0003 Y    -0.0006 Z
  Trans. Moment:    0.0001 X     0.0001 Y     0.0000 Z
  Strength   :  0.000000
  Natural transition orbitals ( 1 -> 10 ):
   e-/hole pair  1 alpha:  ampl =  0.385124 ( 14.8%)   [7 : 8]
   e-/hole pair  2 alpha:  ampl =  0.042903 (  0.2%)   [6 : 9]
   e-/hole pair  1 beta :  ampl =  0.375491 ( 14.1%)   [7 : 8]
   e-/hole pair  2 beta :  ampl =  0.043535 (  0.2%)   [6 : 9]
   Sum of square amplitudes: 0.30

 NATURAL OCCUPATION NUMBERS (higher than 1.0E-05)
            1           2           3           4           5           6
    1   2.0000000   2.0000000   2.0000000   2.0000000   2.0000000   2.0000000
            7           8           9          10          11          12
    1   2.0000000   2.0000000   2.0000000   2.0000000   2.0000000   2.0000000
           13          14          15          16          17          18
    1   2.0000000   2.0000000   2.0000000   2.0000000   2.0000000   2.0000000
           19          20          21          22          23          24
    1   2.0000000   2.0000000   2.0000000   2.0000000   2.0000000   2.0000000
           25          26          27          28          29          30
    1   2.0000000   2.0000000   2.0000000   2.0000000   2.0000000   2.0000000
           31          32          33          34          35          36
    1   2.0000000   2.0000000   2.0000000   2.0000000   2.0000000   2.0000000
           37          38          39          40          41          42
    1   2.0000000   1.9938288   1.9867060   1.9866393   1.9026021   1.9021320
           43          44          45          46          47          48
    1   1.0485799   1.0025820   0.9564943   0.0934295   0.0929268   0.0118025
           49          50          51          52          53          54
    1   0.0117625   0.0052642   0.0005829   0.0005825   0.0004678   0.0004673
           55          56          57          58          59          60
    1   0.0004672   0.0003598   0.0003374   0.0003373   0.0002838   0.0002229
           61          62          63          64          65          66
    1   0.0001719   0.0001555   0.0001553   0.0001075   0.0001075   0.0000973
           67          68          69          70          71          72
    1   0.0000860   0.0000691   0.0000690   0.0000165   0.0000165   0.0000131
           73          74          75          76
    1   0.0000131   0.0000115   0.0000111   0.0000111

 Head-Gordon Nu:    3.35
 Head-Gordon Nu_nl: 3.13

  Amplitudes : 
  
 | HOLE  | ALPHA   | BETA    | PART  |    AMPLITUDE 
--------------------------------------------------
 |       | 1111000 | 0110100 |       |    -3.5571828745985E-01
 |       | 1110100 | 0111000 |       |    -7.1847229292680E-01
 |       | 0111100 | 1110000 |       |    -3.6275400547025E-01
--------------------------------------------------
*** Contributions RASCI wfn    Active:  87.89
                                 Hole:   5.72
                                 Part:   6.39

      Mulliken population analysis 
 ---------------------------------------------------
   Atom    Charge (a.u.)   Spin (a.u.)  
 ---------------------------------------------------
   1  C    0.006913        0.202001 
   2  C    0.017849       -0.049232 
   3  C   -0.084965        0.077545 
   4  C   -0.011118        0.457523 
   5  C   -0.085228        0.077743 
   6  C    0.018077       -0.049200 
   7  H    0.011375       -0.000324 
   8  C    0.018178       -0.049768 
   9  C    0.006512        0.200887 
  10  C    0.018476       -0.049755 
  11  C   -0.085017        0.077142 
  12  C    0.018335       -0.049305 
  13  C    0.006481        0.201381 
  14  C    0.018201       -0.049600 
  15  H    0.023005        0.001538 
  16  H    0.011358       -0.000324 
  17  H    0.011366       -0.000328 
  18  H    0.023234        0.001526 
  19  H    0.011190       -0.000328 
  20  H    0.011421       -0.000327 
  21  H    0.011164       -0.000325 
  22  H    0.023192        0.001531 
 ---------------------------------------------------
   Sum:   -0.000000        1.000000 
 ---------------------------------------------------
 
*** Unpaired Electrons
 Yamaguchi Nd:         3.86
  
**************************************************
 RAS-CI total energy for state  11:   -497.427371269624
  Excitation energy (eV) =  5.995038054092
  State symmetry: A1  (C1       )
  <S^2>      :  0.7500
  Dipole Moment:   -0.0253 X    -0.0033 Y    -0.0007 Z
  Trans. Moment:   -0.0642 X    -0.1137 Y     0.0000 Z
  Strength   :  0.002506
  Natural transition orbitals ( 1 -> 11 ):
   e-/hole pair  1 alpha:  ampl =  0.460154 ( 21.2%)   [7 : 8]
   e-/hole pair  2 alpha:  ampl =  0.292954 (  8.6%)   [6 : 9]
   e-/hole pair  1 beta :  ampl =  0.501807 ( 25.2%)   [7 : 8]
   e-/hole pair  2 beta :  ampl =  0.276847 (  7.7%)   [6 : 9]
   Sum of square amplitudes: 0.68

 NATURAL OCCUPATION NUMBERS (higher than 1.0E-05)
            1           2           3           4           5           6
    1   2.0000000   2.0000000   2.0000000   2.0000000   2.0000000   2.0000000
            7           8           9          10          11          12
    1   2.0000000   2.0000000   2.0000000   2.0000000   2.0000000   2.0000000
           13          14          15          16          17          18
    1   2.0000000   2.0000000   2.0000000   2.0000000   2.0000000   2.0000000
           19          20          21          22          23          24
    1   2.0000000   2.0000000   2.0000000   2.0000000   2.0000000   2.0000000
           25          26          27          28          29          30
    1   2.0000000   2.0000000   2.0000000   2.0000000   2.0000000   2.0000000
           31          32          33          34          35          36
    1   2.0000000   2.0000000   2.0000000   2.0000000   2.0000000   2.0000000
           37          38          39          40          41          42
    1   2.0000000   1.9878194   1.9734683   1.9377329   1.8937912   1.5682414
           43          44          45          46          47          48
    1   1.4550453   1.0295261   0.5199897   0.4633999   0.0991639   0.0338751
           49          50          51          52          53          54
    1   0.0232568   0.0091783   0.0006509   0.0006223   0.0004936   0.0004737
           55          56          57          58          59          60
    1   0.0004481   0.0004078   0.0003291   0.0002623   0.0002373   0.0002264
           61          62          63          64          65          66
    1   0.0002011   0.0001837   0.0001716   0.0001370   0.0001310   0.0000999
           67          68          69          70          71          72
    1   0.0000880   0.0000745   0.0000668   0.0000585   0.0000329   0.0000208
           73          74          75          76
    1   0.0000166   0.0000147   0.0000134   0.0000109

 Head-Gordon Nu:    3.31
 Head-Gordon Nu_nl: 3.29

  Amplitudes : 
  
 | HOLE  | ALPHA   | BETA    | PART  |    AMPLITUDE 
--------------------------------------------------
 |       | 1111000 | 1100100 |       |    -2.1347048965931E-01
 |       | 1111000 | 1010100 |       |    -4.4914736891330E-01
 |       | 1111000 | 0110010 |       |     2.6374957356428E-01
 |       | 1110100 | 1011000 |       |    -1.8952349223519E-01
 |       | 1110010 | 1101000 |       |     1.1789435678941E-01
 |       | 1110010 | 0111000 |       |    -1.7737102900616E-01
 |       | 1110001 | 1011000 |       |     1.1151330797093E-01
 |       | 1101100 | 1110000 |       |     1.2483763488594E-01
 |       | 1011100 | 1110000 |       |     2.5962387667886E-01
 |       | 0111010 | 1110000 |       |    -4.4112060256990E-01
 |       | 0111001 | 1110000 |       |    -1.1197372271823E-01
 |  39   | 1111000 | 1111000 |       |    -1.7045541134045E-01
 |       | 1110000 | 1110000 |  55   |     1.0367988973780E-01
--------------------------------------------------
*** Contributions RASCI wfn    Active:  80.94
                                 Hole:  10.94
                                 Part:   8.12

      Mulliken population analysis 
 ---------------------------------------------------
   Atom    Charge (a.u.)   Spin (a.u.)  
 ---------------------------------------------------
   1  C    0.013263       -0.007959 
   2  C    0.012522        0.107648 
   3  C   -0.088204        0.081900 
   4  C   -0.036296       -0.138670 
   5  C   -0.086362       -0.012187 
   6  C    0.027545        0.230780 
   7  H    0.011244        0.001669 
   8  C    0.019066        0.191187 
   9  C    0.013689       -0.026427 
  10  C    0.025276        0.241641 
  11  C   -0.087325        0.044115 
  12  C    0.014746        0.101153 
  13  C    0.012376        0.005266 
  14  C    0.023330        0.174116 
  15  H    0.022936       -0.000037 
  16  H    0.011260        0.000776 
  17  H    0.011114        0.001417 
  18  H    0.023322       -0.000184 
  19  H    0.010922        0.001785 
  20  H    0.011397        0.001235 
  21  H    0.011160        0.000706 
  22  H    0.023017        0.000069 
 ---------------------------------------------------
   Sum:   -0.000000        1.000000 
 ---------------------------------------------------
 
*** Unpaired Electrons
 Yamaguchi Nd:         4.68
  
**************************************************
 RAS-CI total energy for state  12:   -497.427343128289
  Excitation energy (eV) =  5.995803818774
  State symmetry: A1  (C1       )
  <S^2>      :  0.7500
  Dipole Moment:    0.0258 X     0.0030 Y    -0.0007 Z
  Trans. Moment:    0.1142 X    -0.0640 Y    -0.0001 Z
  Strength   :  0.002518
  Natural transition orbitals ( 1 -> 12 ):
   e-/hole pair  1 alpha:  ampl =  0.460623 ( 21.2%)   [7 : 8]
   e-/hole pair  2 alpha:  ampl =  0.290619 (  8.4%)   [6 : 9]
   e-/hole pair  1 beta :  ampl =  0.502199 ( 25.2%)   [7 : 8]
   e-/hole pair  2 beta :  ampl =  0.274066 (  7.5%)   [6 : 9]
   Sum of square amplitudes: 0.68

 NATURAL OCCUPATION NUMBERS (higher than 1.0E-05)
            1           2           3           4           5           6
    1   2.0000000   2.0000000   2.0000000   2.0000000   2.0000000   2.0000000
            7           8           9          10          11          12
    1   2.0000000   2.0000000   2.0000000   2.0000000   2.0000000   2.0000000
           13          14          15          16          17          18
    1   2.0000000   2.0000000   2.0000000   2.0000000   2.0000000   2.0000000
           19          20          21          22          23          24
    1   2.0000000   2.0000000   2.0000000   2.0000000   2.0000000   2.0000000
           25          26          27          28          29          30
    1   2.0000000   2.0000000   2.0000000   2.0000000   2.0000000   2.0000000
           31          32          33          34          35          36
    1   2.0000000   2.0000000   2.0000000   2.0000000   2.0000000   2.0000000
           37          38          39          40          41          42
    1   2.0000000   1.9880741   1.9720363   1.9385882   1.8924140   1.5733015
           43          44          45          46          47          48
    1   1.4518811   1.0294697   0.5285718   0.4527267   0.1008902   0.0332788
           49          50          51          52          53          54
    1   0.0242611   0.0089826   0.0006500   0.0006216   0.0004969   0.0004777
           55          56          57          58          59          60
    1   0.0004497   0.0003992   0.0003390   0.0002592   0.0002428   0.0002264
           61          62          63          64          65          66
    1   0.0002015   0.0001816   0.0001701   0.0001402   0.0001324   0.0000968
           67          68          69          70          71          72
    1   0.0000867   0.0000764   0.0000666   0.0000602   0.0000334   0.0000207
           73          74          75          76
    1   0.0000165   0.0000152   0.0000135   0.0000102

 Head-Gordon Nu:    3.31
 Head-Gordon Nu_nl: 3.28

  Amplitudes : 
  
 | HOLE  | ALPHA   | BETA    | PART  |    AMPLITUDE 
--------------------------------------------------
 |       | 1111000 | 1100100 |       |     4.4724035004967E-01
 |       | 1111000 | 1010100 |       |    -2.1411633655820E-01
 |       | 1111000 | 0110001 |       |    -2.6214262628429E-01
 |       | 1110100 | 1101000 |       |     1.8565971665956E-01
 |       | 1110010 | 1011000 |       |    -1.1398945405847E-01
 |       | 1110001 | 1101000 |       |     1.1568070226584E-01
 |       | 1110001 | 0111000 |       |     1.8027912168721E-01
 |       | 1101100 | 1110000 |       |    -2.6158063338967E-01
 |       | 1011100 | 1110000 |       |     1.2379007715206E-01
 |       | 0111010 | 1110000 |       |    -1.1110006717687E-01
 |       | 0111001 | 1110000 |       |     4.4242174797214E-01
 |  40   | 1111000 | 1111000 |       |     1.7031114194151E-01
 |       | 1110000 | 1110000 |  56   |     1.0349869849720E-01
--------------------------------------------------
*** Contributions RASCI wfn    Active:  80.94
                                 Hole:  10.94
                                 Part:   8.11

      Mulliken population analysis 
 ---------------------------------------------------
   Atom    Charge (a.u.)   Spin (a.u.)  
 ---------------------------------------------------
   1  C    0.013360       -0.012283 
   2  C    0.027668        0.240117 
   3  C   -0.086195       -0.005969 
   4  C   -0.036326       -0.138711 
   5  C   -0.088508        0.086826 
   6  C    0.013234        0.117440 
   7  H    0.011249        0.000854 
   8  C    0.021750        0.158683 
   9  C    0.012387        0.007849 
  10  C    0.016003        0.108161 
  11  C   -0.087181        0.032843 
  12  C    0.026423        0.247200 
  13  C    0.013521       -0.024754 
  14  C    0.017492        0.175158 
  15  H    0.022969       -0.000071 
  16  H    0.011196        0.001745 
  17  H    0.011360        0.001120 
  18  H    0.023041        0.000089 
  19  H    0.011199        0.000753 
  20  H    0.011186        0.001297 
  21  H    0.010909        0.001822 
  22  H    0.023263       -0.000170 
 ---------------------------------------------------
   Sum:   -0.000000        1.000000 
 ---------------------------------------------------
 
*** Unpaired Electrons
 Yamaguchi Nd:         4.68
  
**************************************************
 RAS-CI total energy for state  13:   -497.410848076317
  Excitation energy (eV) =  6.444657019873
  State symmetry: A1  (C1       )
  <S^2>      :  0.7500
  Dipole Moment:   -0.0000 X    -0.0001 Y    -0.0007 Z
  Trans. Moment:   -0.0006 X    -0.0006 Y     0.0000 Z
  Strength   :  0.000000
  Natural transition orbitals ( 1 -> 13 ):
   e-/hole pair  1 alpha:  ampl =  0.409922 ( 16.8%)   [7 : 8]
   e-/hole pair  2 alpha:  ampl =  0.409678 ( 16.8%)   [6 : 9]
   e-/hole pair  1 beta :  ampl =  0.427645 ( 18.3%)   [7 : 8]
   e-/hole pair  2 beta :  ampl =  0.427054 ( 18.2%)   [6 : 9]
   Sum of square amplitudes: 0.71

 NATURAL OCCUPATION NUMBERS (higher than 1.0E-05)
            1           2           3           4           5           6
    1   2.0000000   2.0000000   2.0000000   2.0000000   2.0000000   2.0000000
            7           8           9          10          11          12
    1   2.0000000   2.0000000   2.0000000   2.0000000   2.0000000   2.0000000
           13          14          15          16          17          18
    1   2.0000000   2.0000000   2.0000000   2.0000000   2.0000000   2.0000000
           19          20          21          22          23          24
    1   2.0000000   2.0000000   2.0000000   2.0000000   2.0000000   2.0000000
           25          26          27          28          29          30
    1   2.0000000   2.0000000   2.0000000   2.0000000   2.0000000   2.0000000
           31          32          33          34          35          36
    1   2.0000000   2.0000000   2.0000000   2.0000000   2.0000000   2.0000000
           37          38          39          40          41          42
    1   2.0000000   1.9810585   1.9715167   1.9713705   1.8889468   1.4817654
           43          44          45          46          47          48
    1   1.4812507   1.0120524   0.5228418   0.5226215   0.1011880   0.0241703
           49          50          51          52          53          54
    1   0.0240418   0.0111438   0.0007568   0.0007503   0.0007480   0.0005539
           55          56          57          58          59          60
    1   0.0005532   0.0003577   0.0003236   0.0003227   0.0002062   0.0002060
           61          62          63          64          65          66
    1   0.0001978   0.0001551   0.0001276   0.0001276   0.0001233   0.0000885
           67          68          69          70          71          72
    1   0.0000884   0.0000860   0.0000640   0.0000354   0.0000313   0.0000313
           73          74          75          76
    1   0.0000155   0.0000155   0.0000118   0.0000118

 Head-Gordon Nu:    3.42
 Head-Gordon Nu_nl: 3.47

  Amplitudes : 
  
 | HOLE  | ALPHA   | BETA    | PART  |    AMPLITUDE 
--------------------------------------------------
 |       | 1111000 | 1100010 |       |     4.2165831344664E-01
 |       | 1111000 | 1010001 |       |    -4.2127874402624E-01
 |       | 1101010 | 1110000 |       |    -4.0555693119994E-01
 |       | 1011001 | 1110000 |       |     4.0565052537608E-01
 |       | 0111010 | 1011000 |       |     1.0116005942804E-01
 |       | 0111001 | 1101000 |       |     1.0305026448337E-01
--------------------------------------------------
*** Contributions RASCI wfn    Active:  85.32
                                 Hole:   7.85
                                 Part:   6.83

      Mulliken population analysis 
 ---------------------------------------------------
   Atom    Charge (a.u.)   Spin (a.u.)  
 ---------------------------------------------------
   1  C    0.018950       -0.016475 
   2  C    0.021037        0.156765 
   3  C   -0.097326        0.041183 
   4  C   -0.027372       -0.018788 
   5  C   -0.097530        0.041780 
   6  C    0.021321        0.156189 
   7  H    0.011126        0.001156 
   8  C    0.021325        0.156144 
   9  C    0.018561       -0.016932 
  10  C    0.021557        0.156760 
  11  C   -0.097413        0.040668 
  12  C    0.021642        0.156942 
  13  C    0.018567       -0.016616 
  14  C    0.021202        0.155940 
  15  H    0.022896       -0.000169 
  16  H    0.011109        0.001161 
  17  H    0.011118        0.001156 
  18  H    0.023119       -0.000172 
  19  H    0.010942        0.001162 
  20  H    0.011170        0.001154 
  21  H    0.010918        0.001164 
  22  H    0.023081       -0.000170 
 ---------------------------------------------------
   Sum:   -0.000000        1.000000 
 ---------------------------------------------------
 
*** Unpaired Electrons
 Yamaguchi Nd:         4.76
  
**************************************************
 RAS-CI total energy for state  14:   -497.388035725666
  Excitation energy (eV) =  7.065412664128
  State symmetry: A1  (C1       )
  <S^2>      :  0.7500
  Dipole Moment:   -0.0033 X     0.0022 Y    -0.0001 Z
  Trans. Moment:   -0.0001 X     0.0013 Y    -0.0000 Z
  Strength   :  0.000000
  Natural transition orbitals ( 1 -> 14 ):
   e-/hole pair  1 alpha:  ampl =  0.908001 ( 82.4%)   [7 : 8]
   e-/hole pair  2 alpha:  ampl =  0.108400 (  1.2%)   [6 : 9]
   e-/hole pair  1 beta :  ampl =  0.014779 (  0.0%)   [7 : 8]
   e-/hole pair  2 beta :  ampl =  0.006935 (  0.0%)   [6 : 9]
[...]
 Reading 2e-SOMF integrals
 2e-SOMF Reduced matrix elements (cm-1)
<S|| Hso(L-) ||S'> =     0.0000477710     0.0008340438i
<S|| Hso(L0) ||S'> =     0.0000000000     0.0002201495i
<S|| Hso(L+) ||S'> =     0.0000477710    -0.0008340438i
 2-elec mean-field SOC matrix (cm-1): < B(S,Sz) | Hso(2e-mf) | A(S',Sz') >
                       |Sz'=-0.50>                |Sz'= 0.50>
 <Sz=-0.50|      0.000000     -0.000127i       0.000039     -0.000681i
 <Sz= 0.50|     -0.000039     -0.000681i       0.000000      0.000127i
 Total mean-field SOC matrix (cm-1): < B(S,Sz) | Hsomf | A(S',Sz') >
                       |Sz'=-0.50>                |Sz'= 0.50>
 <Sz=-0.50|      0.000000      0.000198i      -0.000100      0.000808i
 <Sz= 0.50|      0.000100      0.000808i       0.000000     -0.000198i
Mean-Field SOCC =     0.001185517 cm-1
   
**************************************************
State A: Root 20
State B: Root 15
  
Angular momentum components (a.u.)
< B | Lx | A > =     0.000032460i
< B | Ly | A > =    -0.000048417i
< B | Lz | A > =     0.001013647i
  
Norm of one-particle transition density matrix
||gamma^AB||_total       =  0.287540
||gamma^AB||_symmetrized =  0.198782
||gamma^AB||_anti-symm   =  0.207761
  
Spin-orbit couplings
 Using HF (reference) density for the 2-elec mean-field SOC contribution
KET: S',Sz' (Root  20) =  0.500 0.500
BRA: S ,Sz  (Root  15) =  0.500 0.500
Clebsh-Gordan coefficient: < 0.500, 0.500; 1.000, 0.000| 0.500, 0.500> =  0.577
 Reading 1e-SO integrals
 1e Reduced matrix elements (cm-1)
<S|| Hso(L-) ||S'> =    -0.0032871394     0.0017697201i
<S|| Hso(L0) ||S'> =     0.0000000000    -0.0012993800i
<S|| Hso(L+) ||S'> =    -0.0032871394    -0.0017697201i
 1-elec SOC matrix (cm-1): < B(S,Sz) | Hso(1e) | A(S',Sz') >
                       |Sz'=-0.50>                |Sz'= 0.50>
 <Sz=-0.50|      0.000000      0.000750i      -0.002684     -0.001445i
 <Sz= 0.50|      0.002684     -0.001445i       0.000000     -0.000750i
1-elec SOCC =     0.004439428 cm-1
 Reading 2e-SOMF integrals
 2e-SOMF Reduced matrix elements (cm-1)
<S|| Hso(L-) ||S'> =     0.0016313952    -0.0008603573i
<S|| Hso(L0) ||S'> =     0.0000000000     0.0011762187i
<S|| Hso(L+) ||S'> =     0.0016313952     0.0008603573i
 2-elec mean-field SOC matrix (cm-1): < B(S,Sz) | Hso(2e-mf) | A(S',Sz') >
                       |Sz'=-0.50>                |Sz'= 0.50>
 <Sz=-0.50|      0.000000     -0.000679i       0.001332      0.000702i
 <Sz= 0.50|     -0.001332      0.000702i       0.000000      0.000679i
 Total mean-field SOC matrix (cm-1): < B(S,Sz) | Hsomf | A(S',Sz') >
                       |Sz'=-0.50>                |Sz'= 0.50>
 <Sz=-0.50|      0.000000      0.000071i      -0.001352     -0.000742i
 <Sz= 0.50|      0.001352     -0.000742i       0.000000     -0.000071i
Mean-Field SOCC =     0.002183579 cm-1
   
**************************************************
State A: Root 20
State B: Root 16
  
Angular momentum components (a.u.)
< B | Lx | A > =     0.000047925i
< B | Ly | A > =    -0.000014209i
< B | Lz | A > =     0.000532677i
  
Norm of one-particle transition density matrix
||gamma^AB||_total       =  0.286879
||gamma^AB||_symmetrized =  0.198089
||gamma^AB||_anti-symm   =  0.207510
  
Spin-orbit couplings
 Using HF (reference) density for the 2-elec mean-field SOC contribution
KET: S',Sz' (Root  20) =  0.500 0.500
BRA: S ,Sz  (Root  16) =  0.500 0.500
Clebsh-Gordan coefficient: < 0.500, 0.500; 1.000, 0.000| 0.500, 0.500> =  0.577
 Reading 1e-SO integrals
 1e Reduced matrix elements (cm-1)
<S|| Hso(L-) ||S'> =    -0.0004512062     0.0031462590i
<S|| Hso(L0) ||S'> =     0.0000000000    -0.0009538844i
<S|| Hso(L+) ||S'> =    -0.0004512062    -0.0031462590i
 1-elec SOC matrix (cm-1): < B(S,Sz) | Hso(1e) | A(S',Sz') >
                       |Sz'=-0.50>                |Sz'= 0.50>
 <Sz=-0.50|      0.000000      0.000551i      -0.000368     -0.002569i
 <Sz= 0.50|      0.000368     -0.002569i       0.000000     -0.000551i
1-elec SOCC =     0.003751885 cm-1
 Reading 2e-SOMF integrals
 2e-SOMF Reduced matrix elements (cm-1)
<S|| Hso(L-) ||S'> =     0.0002625850    -0.0015159769i
<S|| Hso(L0) ||S'> =     0.0000000000     0.0008858286i
<S|| Hso(L+) ||S'> =     0.0002625850     0.0015159769i
 2-elec mean-field SOC matrix (cm-1): < B(S,Sz) | Hso(2e-mf) | A(S',Sz') >
                       |Sz'=-0.50>                |Sz'= 0.50>
 <Sz=-0.50|      0.000000     -0.000511i       0.000214      0.001238i
 <Sz= 0.50|     -0.000214      0.001238i       0.000000      0.000511i
 Total mean-field SOC matrix (cm-1): < B(S,Sz) | Hsomf | A(S',Sz') >
                       |Sz'=-0.50>                |Sz'= 0.50>
 <Sz=-0.50|      0.000000      0.000039i      -0.000154     -0.001331i
 <Sz= 0.50|      0.000154     -0.001331i       0.000000     -0.000039i
Mean-Field SOCC =     0.001895860 cm-1
   
**************************************************
State A: Root 20
State B: Root 17
  
Angular momentum components (a.u.)
< B | Lx | A > =     0.000265889i
< B | Ly | A > =     0.000068780i
< B | Lz | A > =    -0.521194058i
  
Norm of one-particle transition density matrix
||gamma^AB||_total       =  0.168120
||gamma^AB||_symmetrized =  0.102592
||gamma^AB||_anti-symm   =  0.133189
  
Spin-orbit couplings
 Using HF (reference) density for the 2-elec mean-field SOC contribution
KET: S',Sz' (Root  20) =  0.500 0.500
BRA: S ,Sz  (Root  17) =  0.500 0.500
Clebsh-Gordan coefficient: < 0.500, 0.500; 1.000, 0.000| 0.500, 0.500> =  0.577
 Reading 1e-SO integrals
 1e Reduced matrix elements (cm-1)
<S|| Hso(L-) ||S'> =    -0.0005353487    -0.0090021075i
<S|| Hso(L0) ||S'> =     0.0000000000     0.0362375406i
<S|| Hso(L+) ||S'> =    -0.0005353487     0.0090021075i
 1-elec SOC matrix (cm-1): < B(S,Sz) | Hso(1e) | A(S',Sz') >
                       |Sz'=-0.50>                |Sz'= 0.50>
 <Sz=-0.50|      0.000000     -0.020922i      -0.000437      0.007350i
 <Sz= 0.50|      0.000437      0.007350i       0.000000      0.020922i
1-elec SOCC =     0.031366738 cm-1
 Reading 2e-SOMF integrals
 2e-SOMF Reduced matrix elements (cm-1)
<S|| Hso(L-) ||S'> =     0.0002000848     0.0038517457i
<S|| Hso(L0) ||S'> =     0.0000000000     0.0199162058i
<S|| Hso(L+) ||S'> =     0.0002000848    -0.0038517457i
 2-elec mean-field SOC matrix (cm-1): < B(S,Sz) | Hso(2e-mf) | A(S',Sz') >
                       |Sz'=-0.50>                |Sz'= 0.50>
 <Sz=-0.50|      0.000000     -0.011499i       0.000163     -0.003145i
 <Sz= 0.50|     -0.000163     -0.003145i       0.000000      0.011499i
 Total mean-field SOC matrix (cm-1): < B(S,Sz) | Hsomf | A(S',Sz') >
                       |Sz'=-0.50>                |Sz'= 0.50>
 <Sz=-0.50|      0.000000     -0.032420i      -0.000274      0.004205i
 <Sz= 0.50|      0.000274      0.004205i       0.000000      0.032420i
Mean-Field SOCC =     0.046235055 cm-1
   
**************************************************
State A: Root 20
State B: Root 18
  
Angular momentum components (a.u.)
< B | Lx | A > =     0.000360732i
< B | Ly | A > =     0.000005925i
< B | Lz | A > =     0.005768065i
  
Norm of one-particle transition density matrix
||gamma^AB||_total       =  0.288914
||gamma^AB||_symmetrized =  0.179705
||gamma^AB||_anti-symm   =  0.226225
  
Spin-orbit couplings
 Using HF (reference) density for the 2-elec mean-field SOC contribution
KET: S',Sz' (Root  20) =  0.500 0.500
BRA: S ,Sz  (Root  18) =  0.500 0.500
Clebsh-Gordan coefficient: < 0.500, 0.500; 1.000, 0.000| 0.500, 0.500> =  0.577
 Reading 1e-SO integrals
 1e Reduced matrix elements (cm-1)
<S|| Hso(L-) ||S'> =     0.0051607794    -0.0011915337i
<S|| Hso(L0) ||S'> =     0.0000000000     0.0002281335i
<S|| Hso(L+) ||S'> =     0.0051607794     0.0011915337i
 1-elec SOC matrix (cm-1): < B(S,Sz) | Hso(1e) | A(S',Sz') >
                       |Sz'=-0.50>                |Sz'= 0.50>
 <Sz=-0.50|      0.000000     -0.000132i       0.004214      0.000973i
 <Sz= 0.50|     -0.004214      0.000973i       0.000000      0.000132i
1-elec SOCC =     0.006118760 cm-1
 Reading 2e-SOMF integrals
 2e-SOMF Reduced matrix elements (cm-1)
<S|| Hso(L-) ||S'> =    -0.0025352229     0.0005567768i
<S|| Hso(L0) ||S'> =     0.0000000000    -0.0007625770i
<S|| Hso(L+) ||S'> =    -0.0025352229    -0.0005567768i
 2-elec mean-field SOC matrix (cm-1): < B(S,Sz) | Hso(2e-mf) | A(S',Sz') >
                       |Sz'=-0.50>                |Sz'= 0.50>
 <Sz=-0.50|      0.000000      0.000440i      -0.002070     -0.000455i
 <Sz= 0.50|      0.002070     -0.000455i       0.000000     -0.000440i
 Total mean-field SOC matrix (cm-1): < B(S,Sz) | Hsomf | A(S',Sz') >
                       |Sz'=-0.50>                |Sz'= 0.50>
 <Sz=-0.50|      0.000000      0.000309i       0.002144      0.000518i
 <Sz= 0.50|     -0.002144      0.000518i       0.000000     -0.000309i
Mean-Field SOCC =     0.003149450 cm-1
   
**************************************************
State A: Root 20
State B: Root 19
  
Angular momentum components (a.u.)
< B | Lx | A > =    -0.000100569i
< B | Ly | A > =    -0.000338877i
< B | Lz | A > =     0.007266803i
  
Norm of one-particle transition density matrix
||gamma^AB||_total       =  0.289068
||gamma^AB||_symmetrized =  0.179636
||gamma^AB||_anti-symm   =  0.226476
  
Spin-orbit couplings
 Using HF (reference) density for the 2-elec mean-field SOC contribution
KET: S',Sz' (Root  20) =  0.500 0.500
BRA: S ,Sz  (Root  19) =  0.500 0.500
Clebsh-Gordan coefficient: < 0.500, 0.500; 1.000, 0.000| 0.500, 0.500> =  0.577
 Reading 1e-SO integrals
 1e Reduced matrix elements (cm-1)
<S|| Hso(L-) ||S'> =     0.0007671911    -0.0049810264i
<S|| Hso(L0) ||S'> =     0.0000000000     0.0004808216i
<S|| Hso(L+) ||S'> =     0.0007671911     0.0049810264i
 1-elec SOC matrix (cm-1): < B(S,Sz) | Hso(1e) | A(S',Sz') >
                       |Sz'=-0.50>                |Sz'= 0.50>
 <Sz=-0.50|      0.000000     -0.000278i       0.000626      0.004067i
 <Sz= 0.50|     -0.000626      0.004067i       0.000000      0.000278i
1-elec SOCC =     0.005832644 cm-1
 Reading 2e-SOMF integrals
 2e-SOMF Reduced matrix elements (cm-1)
<S|| Hso(L-) ||S'> =    -0.0005934298     0.0024279316i
<S|| Hso(L0) ||S'> =     0.0000000000    -0.0012259200i
<S|| Hso(L+) ||S'> =    -0.0005934298    -0.0024279316i
 2-elec mean-field SOC matrix (cm-1): < B(S,Sz) | Hso(2e-mf) | A(S',Sz') >
                       |Sz'=-0.50>                |Sz'= 0.50>
 <Sz=-0.50|      0.000000      0.000708i      -0.000485     -0.001982i
 <Sz= 0.50|      0.000485     -0.001982i       0.000000     -0.000708i
 Total mean-field SOC matrix (cm-1): < B(S,Sz) | Hsomf | A(S',Sz') >
                       |Sz'=-0.50>                |Sz'= 0.50>
 <Sz=-0.50|      0.000000      0.000430i       0.000142      0.002085i
 <Sz= 0.50|     -0.000142      0.002085i       0.000000     -0.000430i
Mean-Field SOCC =     0.003016858 cm-1
   
**************************************************
RAS-CI timing summary (seconds)
  CPU time      12624.27s
  System time       0.67s
  Wall time     19839.62s
Detailed CPU timing summary
     Fock matrix         :         5.8448 s
     Integrals           :        28.9757 s
     Addressing matrices :         0.0002 s
     Guesses             :         0.0433 s
     Iterations          :     11241.2488 s
     Properties          :      1348.1530 s
     RAS-CI(2) correction:         0.0000 s
  
 
 --------------------------------------------------------------
 
                    Orbital Energies (a.u.)
 --------------------------------------------------------------
 
 Alpha MOs
 -- Occupied --
-11.2468 -11.2466 -11.2466 -11.2425 -11.2421 -11.2421 -11.2420 -11.2423
-11.2421 -11.2421 -11.2410 -11.2410 -11.2409  -1.1975  -1.1237  -1.1237
 -1.0264  -1.0263  -1.0140  -0.9212  -0.8510  -0.8377  -0.8376  -0.7146
 -0.7146  -0.6946  -0.6945  -0.6513  -0.5995  -0.5995  -0.5921  -0.5732
 -0.5590  -0.5457  -0.5457  -0.5337  -0.4745  -0.4743  -0.4729  -0.4729
 -0.3348  -0.3545  -0.3545  -0.2074
 -- Virtual --
  0.1187   0.1123   0.1124   0.1798   0.1993   0.1993   0.2230   0.2230
  0.2415   0.2716   0.2685   0.2686   0.2866   0.2867   0.3937   0.4130
  0.4131   0.4300   0.4564   0.4565   0.4852   0.4888   0.4902   0.4903
  0.5839   0.5839   0.6444   0.6594   0.6681   0.6706   0.6706   0.6807
  0.6838   0.6838   0.6897   0.6897   0.7348   0.7349   0.7346   0.7347
  0.7409   0.7500   0.7555   0.7555   0.7624   0.7638   0.7756   0.7756
  0.8052   0.8113   0.8540   0.8540   0.8744   0.8744   0.9035   0.9068
  0.9182   0.9183   0.9198   0.9199   0.9506   0.9957   0.9957   1.0552
  1.0617   1.0619   1.0919   1.0968   1.0968   1.1343   1.1392   1.1392
  1.1545   1.1752   1.1790   1.1790   1.1830   1.1894   1.2144   1.2145
  1.2438   1.2438   1.2592   1.2747   1.2747   1.2995   1.2996   1.3379
  1.3380   1.3559   1.3581   1.3582   1.4032   1.4423   1.5675   1.5676
  1.5735   1.6368   1.6368   1.6472   1.6558   1.6558   1.7154   1.7175
  1.7201   1.7201   1.7570   1.7571   1.8013   1.8014   1.8072   1.8681
  1.8755   1.8880   1.8882   1.8983   1.9070   1.9074   1.9288   1.9297
  1.9536   1.9537   1.9630   1.9631   1.9913   1.9914   2.0360   2.0362
  2.0621   2.0815   2.0838   2.0839   2.0984   2.0985   2.1309   2.1349
  2.1463   2.1465   2.1536   2.1538   2.1541   2.1724   2.1899   2.1942
  2.1943   2.3010   2.3011   2.3636   2.3637   2.3919   2.3919   2.4094
  2.4124   2.4170   2.4172   2.4583   2.4585   2.5588   2.5590   2.5626
  2.6739   2.6741   2.6886   2.7405   2.7406   2.8230   2.8523   2.8523
  2.9227   2.9227   2.9256   3.0368   3.0370   3.0416   3.1110   3.1283
  3.1922   3.1925   3.2588   3.2590   3.7518   3.9300   3.9303
 
 Beta MOs
 -- Occupied --
-11.2468 -11.2466 -11.2466 -11.2425 -11.2412 -11.2412 -11.2411 -11.2393
-11.2392 -11.2392 -11.2390 -11.2389 -11.2389  -1.1918  -1.1147  -1.1146
 -1.0166  -1.0165  -1.0098  -0.9043  -0.8475  -0.8316  -0.8315  -0.7093
 -0.7093  -0.6911  -0.6910  -0.6490  -0.5965  -0.5965  -0.5877  -0.5708
 -0.5412  -0.5429  -0.5428  -0.5297  -0.4720  -0.4718  -0.4413  -0.4413
 -0.3235  -0.3068  -0.3068
 -- Virtual --
  0.0097   0.1280   0.1527   0.1527   0.1809   0.2002   0.2002   0.2240
  0.2240   0.2423   0.2732   0.2937   0.2937   0.2881   0.2881   0.3952
  0.4156   0.4156   0.4407   0.4592   0.4592   0.4864   0.4906   0.4923
  0.4924   0.5870   0.5870   0.6530   0.6705   0.6745   0.6797   0.6798
  0.6826   0.6965   0.6965   0.6916   0.6916   0.7399   0.7400   0.7492
  0.7492   0.7428   0.7518   0.7574   0.7574   0.7647   0.7738   0.7812
  0.7812   0.8240   0.8209   0.8620   0.8620   0.8758   0.8759   0.9057
  0.9080   0.9208   0.9209   0.9278   0.9279   0.9531   0.9992   0.9992
  1.0569   1.0697   1.0699   1.0952   1.0990   1.0990   1.1353   1.1406
  1.1407   1.1605   1.1800   1.1878   1.1878   1.1845   1.2032   1.2170
  1.2171   1.2475   1.2475   1.2720   1.2816   1.2817   1.3016   1.3016
  1.3460   1.3461   1.3582   1.3615   1.3616   1.4066   1.4469   1.5696
  1.5696   1.5761   1.6409   1.6410   1.6526   1.6626   1.6626   1.7194
  1.7200   1.7218   1.7219   1.7613   1.7613   1.8029   1.8030   1.8099
  1.8696   1.8801   1.8909   1.8912   1.9017   1.9113   1.9116   1.9300
  1.9315   1.9580   1.9580   1.9652   1.9652   1.9940   1.9942   2.0378
  2.0380   2.0638   2.0836   2.0854   2.0854   2.1023   2.1024   2.1353
  2.1384   2.1519   2.1520   2.1567   2.1569   2.1606   2.1730   2.1927
  2.1954   2.1954   2.3030   2.3031   2.3671   2.3672   2.3959   2.3978
  2.4143   2.4145   2.4216   2.4218   2.4615   2.4616   2.5607   2.5609
  2.5643   2.6779   2.6781   2.6894   2.7416   2.7417   2.8240   2.8538
  2.8539   2.9245   2.9245   2.9277   3.0383   3.0385   3.0427   3.1130
  3.1296   3.1933   3.1936   3.2603   3.2605   3.7531   3.9313   3.9316
 --------------------------------------------------------------
 
          Ground-State Mulliken Net Atomic Charges

     Atom                 Charge (a.u.)
  ----------------------------------------
      1 C                     0.014635
      2 C                     0.018834
      3 C                    -0.087168
      4 C                    -0.035570
      5 C                    -0.087387
      6 C                     0.019193
      7 H                     0.011464
      8 C                     0.019294
      9 C                     0.014212
     10 C                     0.019441
     11 C                    -0.087210
     12 C                     0.019410
     13 C                     0.014210
     14 C                     0.019162
     15 H                     0.023377
     16 H                     0.011446
     17 H                     0.011454
     18 H                     0.023603
     19 H                     0.011277
     20 H                     0.011508
     21 H                     0.011252
     22 H                     0.023563
  ----------------------------------------
  Sum of atomic charges =     0.000000

 -----------------------------------------------------------------
                    Cartesian Multipole Moments
 -----------------------------------------------------------------
    Charge (ESU x 10^10)
                 0.0000
    Dipole Moment (Debye)
         X      -0.0004      Y      -0.0001      Z       0.0015
       Tot       0.0015
    Quadrupole Moments (Debye-Ang)
        XX     -65.6592     XY       0.0018     YY     -65.6403
        XZ       0.0056     YZ      -0.0010     ZZ     -83.1493
    Octopole Moments (Debye-Ang^2)
       XXX       0.4331    XXY      -0.5227    XYY      -0.4360
       YYY       0.5107    XXZ       0.0317    XYZ      -0.0188
       YYZ       0.0096    XZZ      -0.0007    YZZ       0.0005
       ZZZ       0.0019
    Hexadecapole Moments (Debye-Ang^3)
      XXXX   -1206.5104   XXXY      -0.0268   XXYY    -402.1222
      XYYY       0.0654   YYYY   -1206.0498   XXXZ       0.0315
      XXYZ       0.0269   XYYZ       0.0401   YYYZ      -0.0562
      XXZZ    -268.4145   XYZZ      -0.0016   YYZZ    -268.3686
      XZZZ       0.0079   YZZZ      -0.0011   ZZZZ     -95.6853
 -----------------------------------------------------------------
 Total job time:  19906.08s(wall), 12687.88s(cpu) 
 Sun Mar 31 17:00:54 2024

======= MOLDEN-FORMATTED INPUT FILE FOLLOWS =======
[Molden Format]
[Atoms] (Angs)
  C      1    6      0.62436798     -2.73626214      0.00031643
  C      2    6     -0.70157359     -2.33613482     -0.00016497
  C      3    6     -1.04198248     -0.96709712     -0.00084390
  C      4    6     -0.00005481      0.00007728     -0.00078316
  C      5    6      1.35845885     -0.41902044     -0.00069951
  C      6    6      1.64521047     -1.80078036      0.00050704
  H      7    1      2.68039781     -2.12018594      0.00107922
  C      8    6     -2.38241778     -0.52446337     -0.00016828
  C      9    6     -2.68173158      0.82733121      0.00104712
  C     10    6     -1.67264212      1.77591527      0.00049042
  C     11    6     -0.31634690      1.38622343     -0.00052931
  C     12    6      0.73677529      2.32527769     -0.00057477
  C     13    6      2.05760655      1.90848703      0.00031420
  C     14    6      2.37430062      0.56061737      0.00030678
  H     15    1      0.86423664     -3.79156668      0.00175492
  H     16    1     -1.49545799     -3.07315912     -0.00141561
  H     17    1     -3.17639353     -1.26133398     -0.00046894
  H     18    1     -3.71635643      1.14679177      0.00190819
  H     19    1     -1.91342491      2.83159982      0.00055582
  H     20    1      3.40936486      0.24074642      0.00168506
  H     21    1      0.49658312      3.38108588     -0.00074208
  H     22    1      2.85122754      2.64499573      0.00033492

======= END OF MOLDEN-FORMATTED INPUT FILE =======


        *************************************************************
        *                                                           *
        *  Thank you very much for using Q-Chem.  Have a nice day.  *
        *                                                           *
        *************************************************************


