                  Welcome to Q-Chem
     A Quantum Leap Into The Future Of Chemistry


 Q-Chem 6.0 (devel), Q-Chem, Inc., Pleasanton, CA (2022)

 E. Epifanovsky,  A. T. B. Gilbert,  Xintian Feng,  Joonho Lee,  Yuezhi Mao,  
 N. Mardirossian,  P. Pokhilko,  A. White,  M. Wormit,  M. P. Coons,  
 A. L. Dempwolff,  Zhengting Gan,  D. Hait,  P. R. Horn,  L. D. Jacobson,  
 I. Kaliman,  J. Kussmann,  A. W. Lange,  Ka Un Lao,  D. S. Levine,  Jie Liu,  
 S. C. McKenzie,  A. F. Morrison,  K. Nanda,  F. Plasser,  D. R. Rehn,  
 M. L. Vidal,  Zhi-Qiang You,  Ying Zhu,  B. Alam,  B. Albrecht,  
 A. Aldossary,  E. Alguire,  J. H. Andersen,  V. Athavale,  D. Barton,  
 K. Begam,  A. Behn,  N. Bellonzi,  Y. A. Bernard,  E. J. Berquist,  
 H. Burton,  A. Carreras,  K. Carter-Fenk,  Romit Chakraborty,  
 Chandrima Chakravarty,  Junhan Chen,  A. D. Chien,  K. D. Closser,  
 V. Cofer-Shabica,  L. Cunha,  S. Dasgupta,  Jia Deng,  M. de Wergifosse,  
 M. Diedenhofen,  Hainam Do,  S. Ehlert,  Po-Tung Fang,  S. Fatehi,  
 Qingguo Feng,  T. Friedhoff,  B. Ganoe,  J. Gayvert,  Qinghui Ge,  
 G. Gidofalvi,  M. Goldey,  J. Gomes,  C. Gonzalez-Espinoza,  S. Gulania,  
 A. Gunina,  J. A. Gyamfi,  M. W. D. Hanson-Heine,  P. H. P. Harbach,  
 A. W. Hauser,  M. F. Herbst,  M. Hernandez Vera,  M. Hodecker,  
 Z. C. Holden,  S. Houck,  Xunkun Huang,  Kerwin Hui,  B. C. Huynh,  
 K. Ikeda,  M. Ivanov,  Hyunjun Ji,  Zuxin Jin,  Hanjie Jiang,  B. Kaduk,  
 S. Kaehler,  R. Kang,  K. Khistyaev,  Jaehoon Kim,  Yongbin Kim,  
 P. Klunzinger,  Z. Koczor-Benda,  Joong Hoon Koh,  D. Kosenkov,  
 Saikiran Kotaru,  L. Koulias,  T. Kowalczyk,  C. M. Krauter,  K. Kue,  
 A. Kunitsa,  T. Kus,  A. Landau,  K. V. Lawler,  D. Lefrancois,  S. Lehtola,  
 Rain Li,  Shaozhi Li,  Yi-Pei Li,  Jiashu Liang,  M. Liebenthal,  
 Hung-Hsuan Lin,  You-Sheng Lin,  Fenglai Liu,  Kuan-Yu Liu,  
 M. Loipersberger,  A. Luenser,  C. Malbon,  A. Manjanath,  P. Manohar,  
 E. Mansoor,  S. F. Manzer,  Shan-Ping Mao,  A. V. Marenich,  T. Markovich,  
 S. Mason,  F. Matz,  S. A. Maurer,  P. F. McLaughlin,  M. F. S. J. Menger,  
 J.-M. Mewes,  S. A. Mewes,  P. Morgante,  Mohammad Mostafanejad,  
 J. W. Mullinax,  K. J. Oosterbaan,  G. Paran,  V. Parravicini,  
 Alexander C. Paul,  Suranjan K. Paul,  F. Pavosevic,  Zheng Pei,  S. Prager,  
 E. I. Proynov,  E. Ramos,  B. Rana,  A. E. Rask,  A. Rettig,  R. M. Richard,  
 F. Rob,  E. Rossomme,  T. Scheele,  M. Scheurer,  M. Schneider,  
 P. E. Schneider,  N. Sergueev,  S. M. Sharada,  Hengyuan Shen,  
 W. Skomorowski,  D. W. Small,  C. J. Stein,  Yingli Su,  Yu-Chuan Su,  
 E. J. Sundstrom,  Zhen Tao,  J. Thirman,  Hung-Yi Tsai,  T. Tsuchimochi,  
 N. M. Tubman,  C. Utku,  S. P. Veccham,  O. Vydrov,  J. Wenzel,  
 Jonathan Wong,  J. Witte,  A. Yamada,  Chou-Hsun Yang,  Kun Yao,  
 S. Yeganeh,  S. R. Yost,  A. Zech,  F. Zeller,  Igor Ying Zhang,  
 Xing Zhang,  Yu Zhang,  D. Zuev,  A. Aspuru-Guzik,  A. T. Bell,  
 N. A. Besley,  K. B. Bravaya,  B. R. Brooks,  D. Casanova,  Jeng-Da Chai,  
 Hsing-Ta Chen,  S. Coriani,  C. J. Cramer,  A. E. DePrince, III,  
 R. A. DiStasio Jr.,  A. Dreuw,  B. D. Dunietz,  T. R. Furlani,  
 W. A. Goddard III,  S. Grimme,  S. Hammes-Schiffer,  T. Head-Gordon,  
 W. J. Hehre,  Chao-Ping Hsu,  T.-C. Jagau,  Yousung Jung,  A. Klamt,  
 Jing Kong,  D. S. Lambrecht,  Xiangyuan Li,  WanZhen Liang,  N. J. Mayhall,  
 C. W. McCurdy,  J. B. Neaton,  T. Neudecker,  C. Ochsenfeld,  
 J. A. Parkhill,  R. Peverati,  V. A. Rassolov,  Haisheng Ren,  Yihan Shao,  
 L. V. Slipchenko,  R. P. Steele,  J. E. Subotnik,  A. J. W. Thom,  
 A. Tkatchenko,  D. G. Truhlar,  T. Van Voorhis,  Fan Wang,  
 T. A. Wesolowski,  K. B. Whaley,  H. L. Woodcock III,  P. M. Zimmerman,  
 S. Faraji,  P. M. W. Gill,  M. Head-Gordon,  J. M. Herbert,  A. I. Krylov

 Contributors to earlier versions of Q-Chem not listed above: 
 R. D. Adamson,  B. Austin,  R. Baer,  J. Baker,  G. J. O. Beran,  
 K. Brandhorst,  S. T. Brown,  E. F. C. Byrd,  Arup K. Chakraborty,  
 G. K. L. Chan,  Chun-Min Chang,  Yunqing Chen,  C.-L. Cheng,  
 Siu Hung Chien,  D. M. Chipman,  D. L. Crittenden,  H. Dachsel,  
 R. J. Doerksen,  A. D. Dutoi,  R. G. Edgar,  J. Fosso-Tande,  
 L. Fusti-Molnar,  D. Ghosh,  A. Ghysels,  A. Golubeva-Zadorozhnaya,  
 J. Gonthier,  M. S. Gordon,  S. R. Gwaltney,  G. Hawkins,  J. E. Herr,  
 A. Heyden,  S. Hirata,  E. G. Hohenstein,  G. Kedziora,  F. J. Keil,  
 C. Kelley,  Jihan Kim,  R. A. King,  R. Z. Khaliullin,  P. P. Korambath,  
 W. Kurlancheek,  A. Laurent,  A. M. Lee,  M. S. Lee,  S. V. Levchenko,  
 Ching Yeh Lin,  D. Liotard,  E. Livshits,  R. C. Lochan,  I. Lotan,  
 L. A. Martinez-Martinez,  P. E. Maslen,  N. Nair,  D. P. O'Neill,  
 D. Neuhauser,  E. Neuscamman,  C. M. Oana,  R. Olivares-Amaya,  R. Olson,  
 T. M. Perrine,  B. Peters,  P. A. Pieniazek,  A. Prociuk,  Y. M. Rhee,  
 J. Ritchie,  M. A. Rohrdanz,  E. Rosta,  N. J. Russ,  H. F. Schaefer III,  
 M. W. Schmidt,  N. E. Schultz,  S. Sharma,  N. Shenvi,  C. D. Sherrill,  
 A. C. Simmonett,  A. Sodt,  T. Stein,  D. Stuck,  K. S. Thanthiriwatte,  
 V. Vanovschi,  L. Vogt,  Tao Wang,  A. Warshel,  M. A. Watson,  
 C. F. Williams,  Q. Wu,  X. Xu,  Jun Yang,  W. Zhang,  Yan Zhao

   Please cite Q-Chem as follows:
  "Software for the frontiers of quantum chemistry:
   An overview of developments in the Q-Chem 5 package"
   J. Chem. Phys. 155, 084801 (2021)
   https://doi.org/10.1063/5.0055522 (open access)

 Q-Chem 6.0.1 for Intel X86 EM64T Linux

 Parts of Q-Chem use Armadillo 9.900.5 (Nocturnal Misbehaviour).
 http://arma.sourceforge.net/

 Q-Chem begins on Wed Apr  3 17:01:15 2024  

 Host: atlas-311
0

     Scratch files written to ./qchem46319//
 Processing $rem in /scratch/abel/SOFTWARE/qchem/config/preferences:
 Processing $rem in /dipc/acebg/.qchemrc:

 Checking the input file for inconsistencies... 	...done.

--------------------------------------------------------------
User input:
--------------------------------------------------------------
$comment
 RAS-SF CALCULATION
$end

$molecule
READ doublet_2Tm.molecule
$end

$rem
!**CALCULATION TYPE***     
JOBTYPE            sp    
EXCHANGE           HF
CORRELATION        RASCI    !RASCI=Casanova; RASCI2=Zimmerman
BASIS              cc-pVTZ
BASIS2		   sto-3g

!***SCF REFERENCE***
!SKIP_SCFMAN        FALSE
UNRESTRICTED       FALSE
!SCF_GUESS          core
!SCF_GUESS_MIX      FALSE
!SCF_GUESS_ALWAYS   FALSE
MAX_SCF_CYCLES      999
!SCF_CONVERGENCE    10
SCF_ALGORITHM      DIIS_GDM !DIIS,DM,DIIS_DM,GDM,DIIS_GDM,GD

!SYMMETRY           TRUE   !use of symmetry for calculating integrals
!SYM_IGNORE         FALSE  !turn off using symmetry
!SYM_TOL            5      !tolerance for determining point group
!USE_ABELIAN_SUBGROUP      !define to use abelian group

!THRESH             14
!SCF_FINAL_PRINT     1 !0,1,2,3

!****RAS-SF****
RAS_ROOTS          20       !number of RAS-CI roots to be computed
SET_ITER           150     !number of iterations in RASCI
RAS_ELEC 7
RAS_ELEC_ALPHA 4
RAS_ELEC_BETA 3

RAS_ACT 7
RAS_ACT_ORB [41, 42, 43, 44, 45, 46, 47]
RAS_OCC 40
!N_FROZEN_CORE      FC     !Number of frozen core orbitals
!N_FROZEN_VIRTUAL   0      !Number of frozen virtual orbitals

!RAS_DO_HOLE        TRUE   !presence of hole excitations in RAS-CI wave function
!RAS_DO_PART        TRUE   !presence of particle excitations
!RAS_AMPL_PRINT     10     !threshold (×10 2 ) for the CI amplitudes

!RAS_GUESS_CS       0      !number of closed shell guess conﬁgurations
!RAS_SPIN_MULT      0      !spin multiplicity. Only for Ms = 0 
!RAS_SRDFT          FALSE  !short-range density functional RAS-CI
!RAS_NFRAG          0     !fragments of excitation analysis in RASCI

RAS_PRINT          2      !level of information
!RAS_NATORB         TRUE   !computation of the natural orbital occupancies
!RAS_NATORB_STATE  0      !Saves NO of i RAS computed state in .fchk ﬁle
!RAS_FOD            TRUE

!****RAS-SOC****
CALC_SOC           TRUE   !calculate SOC for EOM-CC, RAS-CI, ADC, TDDFT/TDA and TDDFT
!RAS_SOC_2E        TRUE   !two-electron mean-ﬁeld contribution, default=true
RAS_SOC_SYM_DENS   TRUE   !averaging of α and β densities

!****MEMORY****
MEM_TOTAL          60000 !Default 2000 MB
MEM_STATIC         20000  !Default 64 MB

!**Molecular Properties and Analysis **                                                                                          
!POP_MULLIKEN       TRUE   !Run Mulliken population analysis
!LOWDIN_POPULATION  TRUE   !Run Löwdin population analysis
!GUI                0       !Checkpoints generation
STATE_ANALYSIS     TRUE

!**Wave function analysis of RAS-CI states: MOLDEN**
!PLOTS = 0     ! Note: This can be omitted, default is 0
!NTO_PAIRS = 2 ! Note: This can be omitted, default is 2
!GUI 0
!MOLDEN_FORMAT      TRUE
!PRINT_ORBITALS     15

!**Wave function analysis of RAS-CI state: CUBE**
!NTO_PAIRS = 2 ! Note: This can be omitted, default is 2
!PLOTS = 1
!GUI 0

!**SR-DFT**
!RAS_SRDFT           TRUE !Perform short-range density functional RAS-CI
!RAS_SRDFT_EXC       0 !EX functional. 0=HF. 
!RAS_SRDFT_ONLY_COR  TRUE !No use of EXC functional
!RAS_SRDFT_COR       srPBE !short-range correlation functional
!ras_srdft_0         TRUE !true: no iteration (one-shot); false: iteration
!RAS_OMEGA           400 !Coulomb range-separation parameter. def=400
!RAS_SRDFT_DAMP     0.5 !dumping factor. def=0.5
$end

!$plots
!   grid_points 100 100 100
!   grid_range  (-10,10) (-10,10) (-10,10)
!$end

--------------------------------------------------------------
 ----------------------------------------------------------------
             Standard Nuclear Orientation (Angstroms)
    I     Atom           X                Y                Z
 ----------------------------------------------------------------
    1      C       0.6243679838    -2.7362621432     0.0003164261
    2      C      -0.7015735948    -2.3361348215    -0.0001649656
    3      C      -1.0419824835    -0.9670971198    -0.0008439034
    4      C      -0.0000548132     0.0000772801    -0.0007831605
    5      C       1.3584588456    -0.4190204443    -0.0006995145
    6      C       1.6452104651    -1.8007803647     0.0005070396
    7      H       2.6803978057    -2.1201859378     0.0010792188
    8      C      -2.3824177811    -0.5244633738    -0.0001682759
    9      C      -2.6817315780     0.8273312149     0.0010471198
   10      C      -1.6726421175     1.7759152657     0.0004904235
   11      C      -0.3163469004     1.3862234269    -0.0005293069
   12      C       0.7367752863     2.3252776938    -0.0005747718
   13      C       2.0576065541     1.9084870347     0.0003141988
   14      C       2.3743006152     0.5606173675     0.0003067751
   15      H       0.8642366403    -3.7915666760     0.0017549180
   16      H      -1.4954579885    -3.0731591179    -0.0014156115
   17      H      -3.1763935341    -1.2613339838    -0.0004689351
   18      H      -3.7163564276     1.1467917750     0.0019081870
   19      H      -1.9134249087     2.8315998155     0.0005558156
   20      H       3.4093648619     0.2407464211     0.0016850583
   21      H       0.4965831230     3.3810858808    -0.0007420755
   22      H       2.8512275382     2.6449957256     0.0003349189
 ----------------------------------------------------------------
 Molecular Point Group                 C1    NOp =  1
 Largest Abelian Subgroup              C1    NOp =  1
 Nuclear Repulsion Energy =         700.08505759 hartrees
 There are       44 alpha and       43 beta electrons
 Requested basis set is cc-pVTZ
 There are 184 shells and 516 basis functions

 Q-Chem warning in module libmdc/get_mega.C, line 167:

 Allowed MEM_STATIC has been capped at MEM_STATIC=8191.
 Reduce the value of MEM_STATIC to silence this warning.


 Total QAlloc Memory Limit  60000 MB
 Mega-Array Size      8007 MB
 MEM_STATIC part      8191 MB

 A cutoff of  1.0D-09 yielded  12877 shell pairs
 There are     97997 function pairs (    127449 Cartesian)
 Smallest overlap matrix eigenvalue = 1.54E-05

 Q-Chem warning in module stvman/mkSTV.C, line 313:

 Overlap eigenvalue is smaller than square root of threshold
 Use THRESH >= 12 to get rid of this warning


 Scale SEOQF with 1.000000e-01/1.000000e-01/1.000000e+00

 Standard Electronic Orientation quadrupole field applied
 Nucleus-field energy     =     0.0000000272 hartrees
 Requested basis set is STO-3G
 There are 35 shells and 74 basis functions
 A cutoff of  1.0D-09 yielded    531 shell pairs
 There are      2718 function pairs
 Smallest overlap matrix eigenvalue = 1.69E-01
 Constructing guess Fock matrix from core Hamiltonian
 Applying Wolfsberg-Helmholtz approximation
 A restricted Hartree-Fock SCF calculation will be
 performed using Geometric Direct Minimization
 SCF converges when RMS gradient is below 1.0E-04
 ---------------------------------------
  Cycle       Energy        RMS Gradient
 ---------------------------------------
    1    -490.2238037751      2.73E-01 Descent step
    2    -490.6693022161      1.95E-01 Descent step
    3    -491.0109737641      1.65E-01 Descent step
    4    -491.2538486794      1.20E-01 Descent step
    5    -491.4023410455      6.81E-02 Dog-leg BFGS step
    6    -491.4608010486      1.22E-02 Normal BFGS step
    7    -491.4624385043      1.34E-03 Normal BFGS step
    8    -491.4624599639      9.51E-04 Normal BFGS step
    9    -491.4624614833      1.00E-04 Normal BFGS step
   10    -491.4624616738      7.18E-05 Convergence criterion met
 ---------------------------------------
 SCF time:  CPU 0.72 s  wall 1.21 s
 SCF   energy in the small basis set = -491.46246167
 Total energy in the small basis set = -491.46246167
 ----------------------------------------------------
  Cycle       Energy    
 ----------------------------------------------------
    1     -63.7545459061     -6.38E+01
 A restricted Hartree-Fock SCF calculation will be
 performed using Geometric Direct Minimization
 SCF converges when RMS gradient is below 1.0E-05
 ---------------------------------------
  Cycle       Energy        RMS Gradient
 ---------------------------------------
    1    -497.5080160349      6.30E-02 Descent step
    2    -497.6341770006      3.01E-02 Dog-leg BFGS step
    3    -497.6792226786      4.86E-03 Normal BFGS step
    4    -497.6796013147      3.02E-03 Normal BFGS step
    5    -497.6796844136      9.83E-04 Normal BFGS step
    6    -497.6796898338      4.35E-04 Normal BFGS step
    7    -497.6796915935      1.61E-04 Normal BFGS step
    8    -497.6796920334      6.25E-05 Normal BFGS step
    9    -497.6796923085      2.58E-05 Normal BFGS step
   10    -497.6796925704      2.68E-05 Normal BFGS step
   11    -497.6796927256      1.68E-05 Normal BFGS step
   12    -497.6796930254      1.17E-05 Normal BFGS step
   13    -497.6796939494      5.01E-06 Convergence criterion met
 ---------------------------------------
 SCF time:  CPU 762.20 s  wall 766.07 s
 SCF   energy in the final basis set = -497.67969395
 Total energy in the final basis set = -497.67969395
  
     ##========================================##
     ||                                        ||
     ||              R A S M A N 2             ||
     ||________________________________________||
     ||                                        ||
     ||  Author:                               ||
     ||                                        ||
     ||        David Casanova (2010)           ||
     ||                                        ||
     ##========================================##
  
Setting single-point xc-functionals (if necessary)

  ***************************************************
  *  RAS-CI Dimensions:                             *
  *                                                 *
  *  Active Elec.:   7 ( 4, 3)   Active Orb.:   7   *
  *  Doubly Occ. :  40           Doubly Vir.: 469   *
  *  Frozen Occ. :   0           Frozen Vir.:   0   *
  *                                                 *
  *  Total CI configurations:    998865             * 
  *    Active configurations:      1225             * 
  *      Hole configurations:     78400             * 
  *  Particle configurations:    919240             * 
  *                                                 *
  *   Requested states:       20                    *
  *  Spin multiplicity: Any multiplicity            *
  *                                                 *
  ***************************************************
-----------------------------------------
    Memory requirements of RASCI

 Each CI-vector requires      7.62 MiB 
 Max. subspace vectors           3000      

 Reduced Lists                0.00 MiB 
 Excitation Lists             0.00 MiB 
 Excitation Lists Sign        0.00 MiB 
 CI-space (Max)           23083.31 MiB 
 Integrals                  205.21 MiB 
 Memory required (Max)    23083.31 MiB 
 Memory available          7811.55 MiB 

 Q-Chem warning in module rasman2/ras_mem_check.C, line 162:

 Static memory may be insufficient to store the subspace vectors


    Disk requirements of RASCI

 Fock matrix                  4.06 MiB 
 2-electron integrals       348.04 MiB 
 CI-space                 45724.41 MiB 
 Disk required            46076.51 MiB 
-----------------------------------------
  
RAS1 HF-like energy:           -491.2877671720
 Computing integrals
 Computing J and K matrices
 Computing addressing
 Making amplitude guesses
 
Direct CI diagonalization
 ---------------------------------------------------
 Iter    Rts Conv    Rts Left    Ttl Dev     Max Dev
 ---------------------------------------------------
   1         0          20      0.004468    0.000265
   2         0          20      0.002281    0.000146
   3         0          20      0.001602    0.000132
   4         0          20      0.001430    0.000128
   5         0          20      0.000935    0.000103
   6         0          20      0.000828    0.000182
   7         0          20      0.000972    0.000210
   8         0          20      0.000874    0.000158
   9         0          20      0.000715    0.000131
  10         0          20      0.000642    0.000127
  11         0          20      0.000629    0.000134
  12         1          19      0.000711    0.000135
  13         1          19      0.000690    0.000146
  14         4          16      0.000713    0.000149
  15         5          15      0.000752    0.000153
  16         5          15      0.000674    0.000141
  17         6          14      0.000589    0.000123
  18         8          12      0.000500    0.000108
  19         9          11      0.000475    0.000084
  20         9          11      0.000439    0.000075
  21         8          12      0.000367    0.000073
  22         8          12      0.000301    0.000066
  23         9          11      0.000240    0.000056
  24         9          11      0.000208    0.000053
  25        10          10      0.000197    0.000053
  26        10          10      0.000176    0.000044
  27        11           9      0.000141    0.000031
  28        12           8      0.000117    0.000029
  29        12           8      0.000095    0.000025
  30        13           7      0.000073    0.000020
  31        13           7      0.000058    0.000015
  32        13           7      0.000050    0.000013
  33        13           7      0.000041    0.000011
  34        16           4      0.000033    0.000009
  35        16           4      0.000028    0.000007
  36        16           4      0.000023    0.000006
  37        16           4      0.000019    0.000004
  38        16           4      0.000016    0.000003
  39        16           4      0.000014    0.000002
  40        16           4      0.000012    0.000002
  41        19           1      0.000010    0.000001
  42        20           0      0.000010    0.000001    Roots Converged
 ---------------------------------------------------
   
**************************************************
 RAS-CI total energy for state   1:   -497.763477066809
  Excitation energy (eV) =  0.000000000000
  State symmetry: A1  (C1       )
  <S^2>      :  0.7500
  Dipole Moment:    0.0001 X     0.0001 Y    -0.0006 Z
 NATURAL OCCUPATION NUMBERS (higher than 1.0E-05)
            1           2           3           4           5           6
    1   2.0000000   2.0000000   2.0000000   2.0000000   2.0000000   2.0000000
            7           8           9          10          11          12
    1   2.0000000   2.0000000   2.0000000   2.0000000   2.0000000   2.0000000
           13          14          15          16          17          18
    1   2.0000000   2.0000000   2.0000000   2.0000000   2.0000000   2.0000000
           19          20          21          22          23          24
    1   2.0000000   2.0000000   2.0000000   2.0000000   2.0000000   2.0000000
           25          26          27          28          29          30
    1   2.0000000   2.0000000   2.0000000   2.0000000   2.0000000   2.0000000
           31          32          33          34          35          36
    1   2.0000000   2.0000000   2.0000000   2.0000000   2.0000000   2.0000000
           37          38          39          40          41          42
    1   2.0000000   1.9983327   1.9935053   1.9934969   1.9429042   1.9330893
           43          44          45          46          47          48
    1   1.9330648   1.0009590   0.0637159   0.0636877   0.0538355   0.0067258
           49          50          51          52          53          54
    1   0.0067134   0.0019139   0.0010679   0.0010675   0.0008424   0.0007475
           55          56          57          58          59          60
    1   0.0006533   0.0006525   0.0004393   0.0003685   0.0003683   0.0002641
           61          62          63          64          65          66
    1   0.0002237   0.0002007   0.0002006   0.0001697   0.0001696   0.0001300
           67          68          69          70          71          72
    1   0.0001300   0.0001275   0.0000954   0.0000188   0.0000188   0.0000132
           73          74
    1   0.0000132   0.0000131

 Head-Gordon Nu:    1.41
 Head-Gordon Nu_nl: 1.09
 Created directory ./qchem46319/plots

  Amplitudes : 
  
 | HOLE  | ALPHA   | BETA    | PART  |    AMPLITUDE 
--------------------------------------------------
 |       | 1111000 | 1110000 |       |     9.3408057496508E-01
 |       | 1110010 | 1011000 |       |    -1.0260509155402E-01
 |       | 1110001 | 1101000 |       |     1.0243794696132E-01
--------------------------------------------------
*** Contributions RASCI wfn    Active:  95.57
                                 Hole:   1.51
                                 Part:   2.92

      Mulliken population analysis 
 ---------------------------------------------------
   Atom    Charge (a.u.)   Spin (a.u.)  
 ---------------------------------------------------
   1  C   -0.174754       -0.032575 
   2  C   -0.189076        0.194777 
   3  C    0.127888       -0.029632 
   4  C   -0.032483        0.000827 
   5  C    0.127625       -0.029581 
   6  C   -0.189028        0.194378 
   7  H    0.142307        0.002868 
   8  C   -0.188949        0.195394 
   9  C   -0.174342       -0.032750 
  10  C   -0.189529        0.195874 
  11  C    0.127373       -0.029683 
  12  C   -0.189333        0.195314 
  13  C   -0.174279       -0.032666 
  14  C   -0.188912        0.194806 
  15  H    0.151201       -0.000586 
  16  H    0.142347        0.002874 
  17  H    0.142483        0.002883 
  18  H    0.150821       -0.000588 
  19  H    0.142694        0.002893 
  20  H    0.142408        0.002874 
  21  H    0.142656        0.002885 
  22  H    0.150884       -0.000586 
 ---------------------------------------------------
   Sum:   -0.000000        1.000000 
 ---------------------------------------------------
 
*** Unpaired Electrons
 Yamaguchi Nd:         1.80
  
**************************************************
 RAS-CI total energy for state   2:   -497.661420916409
  Excitation energy (eV) =  2.777089146252
  State symmetry: A1  (C1       )
  <S^2>      :  0.7500
  Dipole Moment:   -0.0237 X     0.0047 Y    -0.0007 Z
  Trans. Moment:   -0.0085 X     0.0034 Y    -0.0000 Z
  Strength   :  0.000006
  Natural transition orbitals ( 1 -> 2 ):
   e-/hole pair  1 alpha:  ampl =  0.639934 ( 41.0%)   [7 : 8]
   e-/hole pair  2 alpha:  ampl =  0.086177 (  0.7%)   [6 : 9]
   e-/hole pair  1 beta :  ampl =  0.620657 ( 38.5%)   [7 : 8]
   e-/hole pair  2 beta :  ampl =  0.087423 (  0.8%)   [6 : 9]
   Sum of square amplitudes: 0.83

 NATURAL OCCUPATION NUMBERS (higher than 1.0E-05)
            1           2           3           4           5           6
    1   2.0000000   2.0000000   2.0000000   2.0000000   2.0000000   2.0000000
            7           8           9          10          11          12
    1   2.0000000   2.0000000   2.0000000   2.0000000   2.0000000   2.0000000
           13          14          15          16          17          18
    1   2.0000000   2.0000000   2.0000000   2.0000000   2.0000000   2.0000000
           19          20          21          22          23          24
    1   2.0000000   2.0000000   2.0000000   2.0000000   2.0000000   2.0000000
           25          26          27          28          29          30
    1   2.0000000   2.0000000   2.0000000   2.0000000   2.0000000   2.0000000
           31          32          33          34          35          36
    1   2.0000000   2.0000000   2.0000000   2.0000000   2.0000000   2.0000000
           37          38          39          40          41          42
    1   2.0000000   1.9965254   1.9858836   1.9807145   1.9351483   1.9303042
           43          44          45          46          47          48
    1   1.4924007   0.9795932   0.5303558   0.0659177   0.0605311   0.0180863
           49          50          51          52          53          54
    1   0.0135984   0.0031568   0.0009060   0.0008644   0.0008522   0.0008113
           55          56          57          58          59          60
    1   0.0006902   0.0005571   0.0004853   0.0003843   0.0003392   0.0002744
           61          62          63          64          65          66
    1   0.0002363   0.0002116   0.0001809   0.0001555   0.0001501   0.0001490
           67          68          69          70          71          72
    1   0.0001384   0.0001084   0.0000951   0.0000311   0.0000277   0.0000207
           73          74          75          76
    1   0.0000170   0.0000155   0.0000135   0.0000127

 Head-Gordon Nu:    2.36
 Head-Gordon Nu_nl: 2.25

  Amplitudes : 
  
 | HOLE  | ALPHA   | BETA    | PART  |    AMPLITUDE 
--------------------------------------------------
 |       | 1111000 | 1101000 |       |     1.7818811346196E-01
 |       | 1111000 | 1011000 |       |    -6.1244137401026E-01
 |       | 1110010 | 1110000 |       |     6.4992757209905E-01
--------------------------------------------------
*** Contributions RASCI wfn    Active:  90.16
                                 Hole:   4.37
                                 Part:   5.47

      Mulliken population analysis 
 ---------------------------------------------------
   Atom    Charge (a.u.)   Spin (a.u.)  
 ---------------------------------------------------
   1  C   -0.174182        0.136573 
   2  C   -0.188292       -0.031260 
   3  C    0.116605        0.214857 
   4  C   -0.031192       -0.030398 
   5  C    0.125086       -0.000047 
   6  C   -0.182894        0.088463 
   7  H    0.141953        0.001333 
   8  C   -0.183549        0.117853 
   9  C   -0.173809       -0.017535 
  10  C   -0.183548        0.131350 
  11  C    0.117075        0.191244 
  12  C   -0.188545       -0.036733 
  13  C   -0.173669        0.155471 
  14  C   -0.183353        0.069829 
  15  H    0.150438        0.002441 
  16  H    0.142353       -0.000547 
  17  H    0.141886        0.001992 
  18  H    0.150714       -0.000215 
  19  H    0.142054        0.002207 
  20  H    0.142128        0.001016 
  21  H    0.142699       -0.000657 
  22  H    0.150042        0.002763 
 ---------------------------------------------------
   Sum:   -0.000000        1.000000 
 ---------------------------------------------------
 
*** Unpaired Electrons
 Yamaguchi Nd:         3.20
  
**************************************************
 RAS-CI total energy for state   3:   -497.661389954285
  Excitation energy (eV) =  2.777931668509
  State symmetry: A1  (C1       )
  <S^2>      :  0.7500
  Dipole Moment:    0.0242 X    -0.0050 Y    -0.0007 Z
  Trans. Moment:    0.0032 X     0.0089 Y     0.0000 Z
  Strength   :  0.000006
  Natural transition orbitals ( 1 -> 3 ):
   e-/hole pair  1 alpha:  ampl =  0.639821 ( 40.9%)   [7 : 8]
   e-/hole pair  2 alpha:  ampl =  0.087303 (  0.8%)   [6 : 9]
   e-/hole pair  1 beta :  ampl =  0.620711 ( 38.5%)   [7 : 8]
   e-/hole pair  2 beta :  ampl =  0.088549 (  0.8%)   [6 : 9]
   Sum of square amplitudes: 0.83

 NATURAL OCCUPATION NUMBERS (higher than 1.0E-05)
            1           2           3           4           5           6
    1   2.0000000   2.0000000   2.0000000   2.0000000   2.0000000   2.0000000
            7           8           9          10          11          12
    1   2.0000000   2.0000000   2.0000000   2.0000000   2.0000000   2.0000000
           13          14          15          16          17          18
    1   2.0000000   2.0000000   2.0000000   2.0000000   2.0000000   2.0000000
           19          20          21          22          23          24
    1   2.0000000   2.0000000   2.0000000   2.0000000   2.0000000   2.0000000
           25          26          27          28          29          30
    1   2.0000000   2.0000000   2.0000000   2.0000000   2.0000000   2.0000000
           31          32          33          34          35          36
    1   2.0000000   2.0000000   2.0000000   2.0000000   2.0000000   2.0000000
           37          38          39          40          41          42
    1   2.0000000   1.9964634   1.9838600   1.9822084   1.9341128   1.9329356
           43          44          45          46          47          48
    1   1.4905320   0.9794890   0.5325642   0.0637286   0.0609229   0.0167449
           49          50          51          52          53          54
    1   0.0154914   0.0031252   0.0009205   0.0008685   0.0008658   0.0008070
           55          56          57          58          59          60
    1   0.0006779   0.0005778   0.0004487   0.0004330   0.0003327   0.0002751
           61          62          63          64          65          66
    1   0.0002332   0.0002021   0.0001889   0.0001700   0.0001505   0.0001455
           67          68          69          70          71          72
    1   0.0001208   0.0001085   0.0001013   0.0000349   0.0000229   0.0000222
           73          74          75          76
    1   0.0000153   0.0000149   0.0000136   0.0000135

 Head-Gordon Nu:    2.36
 Head-Gordon Nu_nl: 2.25

  Amplitudes : 
  
 | HOLE  | ALPHA   | BETA    | PART  |    AMPLITUDE 
--------------------------------------------------
 |       | 1111000 | 1101000 |       |     6.1235399275682E-01
 |       | 1111000 | 1011000 |       |     1.7810447654738E-01
 |       | 1110001 | 1110000 |       |     6.4963408927271E-01
--------------------------------------------------
*** Contributions RASCI wfn    Active:  90.16
                                 Hole:   4.37
                                 Part:   5.47

      Mulliken population analysis 
 ---------------------------------------------------
   Atom    Charge (a.u.)   Spin (a.u.)  
 ---------------------------------------------------
   1  C   -0.174210        0.046849 
   2  C   -0.181662        0.144989 
   3  C    0.123118        0.055608 
   4  C   -0.031201       -0.030413 
   5  C    0.114078        0.270761 
   6  C   -0.186953        0.024933 
   7  H    0.142053        0.000450 
   8  C   -0.186179       -0.005092 
   9  C   -0.173635        0.200146 
  10  C   -0.187328       -0.018532 
  11  C    0.121620        0.079287 
  12  C   -0.181908        0.150186 
  13  C   -0.173719        0.027842 
  14  C   -0.186288        0.043099 
  15  H    0.150822        0.000893 
  16  H    0.141729        0.002337 
  17  H    0.142476       -0.000218 
  18  H    0.149792        0.003532 
  19  H    0.142727       -0.000429 
  20  H    0.142081        0.000760 
  21  H    0.142003        0.002446 
  22  H    0.150584        0.000566 
 ---------------------------------------------------
   Sum:   -0.000000        1.000000 
 ---------------------------------------------------
 
*** Unpaired Electrons
 Yamaguchi Nd:         3.20
  
**************************************************
 RAS-CI total energy for state   4:   -497.651897569941
  Excitation energy (eV) =  3.036232588449
  State symmetry: A1  (C1       )
  <S^2>      :  0.7500
  Dipole Moment:    0.0004 X    -0.0004 Y    -0.0007 Z
  Trans. Moment:    0.0002 X     0.0001 Y    -0.0000 Z
  Strength   :  0.000000
  Natural transition orbitals ( 1 -> 4 ):
   e-/hole pair  1 alpha:  ampl =  0.701787 ( 49.3%)   [7 : 8]
   e-/hole pair  2 alpha:  ampl =  0.085392 (  0.7%)   [6 : 9]
   e-/hole pair  1 beta :  ampl =  0.530196 ( 28.1%)   [7 : 8]
   e-/hole pair  2 beta :  ampl =  0.078558 (  0.6%)   [6 : 9]
   Sum of square amplitudes: 0.81

 NATURAL OCCUPATION NUMBERS (higher than 1.0E-05)
            1           2           3           4           5           6
    1   2.0000000   2.0000000   2.0000000   2.0000000   2.0000000   2.0000000
            7           8           9          10          11          12
    1   2.0000000   2.0000000   2.0000000   2.0000000   2.0000000   2.0000000
           13          14          15          16          17          18
    1   2.0000000   2.0000000   2.0000000   2.0000000   2.0000000   2.0000000
           19          20          21          22          23          24
    1   2.0000000   2.0000000   2.0000000   2.0000000   2.0000000   2.0000000
           25          26          27          28          29          30
    1   2.0000000   2.0000000   2.0000000   2.0000000   2.0000000   2.0000000
           31          32          33          34          35          36
    1   2.0000000   2.0000000   2.0000000   2.0000000   2.0000000   2.0000000
           37          38          39          40          41          42
    1   2.0000000   1.9915922   1.9793297   1.9792186   1.9105759   1.9105447
           43          44          45          46          47          48
    1   1.6206148   0.7820517   0.6165705   0.0768866   0.0768489   0.0203386
           49          50          51          52          53          54
    1   0.0202381   0.0066706   0.0010013   0.0009996   0.0008736   0.0008283
           55          56          57          58          59          60
    1   0.0008273   0.0005998   0.0005994   0.0004531   0.0004495   0.0003396
           61          62          63          64          65          66
    1   0.0002240   0.0002239   0.0001433   0.0001386   0.0001295   0.0001295
           67          68          69          70          71          72
    1   0.0001194   0.0001193   0.0000738   0.0000459   0.0000458   0.0000361
           73          74          75          76
    1   0.0000174   0.0000174   0.0000127   0.0000127

 Head-Gordon Nu:    2.22
 Head-Gordon Nu_nl: 2.12

  Amplitudes : 
  
 | HOLE  | ALPHA   | BETA    | PART  |    AMPLITUDE 
--------------------------------------------------
 |       | 1111000 | 0111000 |       |    -5.4160415531086E-01
 |       | 1110100 | 1110000 |       |     7.1561926062581E-01
 |       | 1101100 | 1101000 |       |    -1.0706190742886E-01
 |       | 1011100 | 1011000 |       |    -1.0750363776155E-01
--------------------------------------------------
*** Contributions RASCI wfn    Active:  88.53
                                 Hole:   5.22
                                 Part:   6.25

      Mulliken population analysis 
 ---------------------------------------------------
   Atom    Charge (a.u.)   Spin (a.u.)  
 ---------------------------------------------------
   1  C   -0.204878        0.164889 
   2  C   -0.165800        0.024582 
   3  C    0.124704        0.016038 
   4  C   -0.069930        0.295315 
   5  C    0.124462        0.015685 
   6  C   -0.165810        0.025154 
   7  H    0.142360        0.000592 
   8  C   -0.165662        0.025145 
   9  C   -0.204484        0.166226 
  10  C   -0.166184        0.024822 
  11  C    0.124173        0.016127 
  12  C   -0.166038        0.024596 
  13  C   -0.204397        0.165270 
  14  C   -0.165649        0.025238 
  15  H    0.150322        0.002453 
  16  H    0.142405        0.000582 
  17  H    0.142537        0.000592 
  18  H    0.149939        0.002472 
  19  H    0.142750        0.000587 
  20  H    0.142461        0.000594 
  21  H    0.142715        0.000583 
  22  H    0.150005        0.002456 
 ---------------------------------------------------
   Sum:   -0.000000        1.000000 
 ---------------------------------------------------
 
*** Unpaired Electrons
 Yamaguchi Nd:         3.27
  
**************************************************
 RAS-CI total energy for state   5:   -497.615751972296
  Excitation energy (eV) =  4.019804342939
  State symmetry: A1  (C1       )
  <S^2>      :  0.7500
  Dipole Moment:   -0.0005 X     0.0008 Y    -0.0007 Z
  Trans. Moment:    0.0011 X     0.0015 Y    -0.0001 Z
  Strength   :  0.000000
  Natural transition orbitals ( 1 -> 5 ):
   e-/hole pair  1 alpha:  ampl =  0.557503 ( 31.1%)   [7 : 8]
   e-/hole pair  2 alpha:  ampl =  0.043036 (  0.2%)   [6 : 9]
   e-/hole pair  1 beta :  ampl =  0.714906 ( 51.1%)   [7 : 8]
   e-/hole pair  2 beta :  ampl =  0.062112 (  0.4%)   [6 : 9]
   Sum of square amplitudes: 0.84

 NATURAL OCCUPATION NUMBERS (higher than 1.0E-05)
            1           2           3           4           5           6
    1   2.0000000   2.0000000   2.0000000   2.0000000   2.0000000   2.0000000
            7           8           9          10          11          12
    1   2.0000000   2.0000000   2.0000000   2.0000000   2.0000000   2.0000000
           13          14          15          16          17          18
    1   2.0000000   2.0000000   2.0000000   2.0000000   2.0000000   2.0000000
           19          20          21          22          23          24
    1   2.0000000   2.0000000   2.0000000   2.0000000   2.0000000   2.0000000
           25          26          27          28          29          30
    1   2.0000000   2.0000000   2.0000000   2.0000000   2.0000000   2.0000000
           31          32          33          34          35          36
    1   2.0000000   2.0000000   2.0000000   2.0000000   2.0000000   2.0000000
           37          38          39          40          41          42
    1   2.0000000   1.9963394   1.9915034   1.9914837   1.9354425   1.9354159
           43          44          45          46          47          48
    1   1.3638501   1.2255286   0.4005410   0.0657692   0.0657259   0.0069492
           49          50          51          52          53          54
    1   0.0069445   0.0033945   0.0014426   0.0014422   0.0009809   0.0009796
           55          56          57          58          59          60
    1   0.0009556   0.0006867   0.0005869   0.0005866   0.0005618   0.0004546
           61          62          63          64          65          66
    1   0.0003421   0.0003309   0.0003304   0.0002263   0.0002217   0.0002217
           67          68          69          70          71          72
    1   0.0001761   0.0001760   0.0001239   0.0000440   0.0000363   0.0000362
           73          74          75          76          77
    1   0.0000302   0.0000302   0.0000218   0.0000218   0.0000125

 Head-Gordon Nu:    2.12
 Head-Gordon Nu_nl: 2.13

  Amplitudes : 
  
 | HOLE  | ALPHA   | BETA    | PART  |    AMPLITUDE 
--------------------------------------------------
 |       | 1111000 | 0111000 |       |     7.3221172431030E-01
 |       | 1110100 | 1110000 |       |     5.6697582128061E-01
--------------------------------------------------
*** Contributions RASCI wfn    Active:  93.93
                                 Hole:   2.36
                                 Part:   3.71

      Mulliken population analysis 
 ---------------------------------------------------
   Atom    Charge (a.u.)   Spin (a.u.)  
 ---------------------------------------------------
   1  C   -0.148316        0.122597 
   2  C   -0.213835        0.017107 
   3  C    0.132778        0.041534 
   4  C    0.024045        0.400032 
   5  C    0.132572        0.041787 
   6  C   -0.213730        0.016959 
   7  H    0.141828        0.000319 
   8  C   -0.213748        0.016792 
   9  C   -0.147879        0.121943 
  10  C   -0.214399        0.016814 
  11  C    0.132190        0.041364 
  12  C   -0.214085        0.017115 
  13  C   -0.147827        0.122353 
  14  C   -0.213743        0.016824 
  15  H    0.151553        0.001627 
  16  H    0.141866        0.000322 
  17  H    0.142003        0.000317 
  18  H    0.151176        0.001614 
  19  H    0.142212        0.000318 
  20  H    0.141927        0.000317 
  21  H    0.142176        0.000322 
  22  H    0.151236        0.001621 
 ---------------------------------------------------
   Sum:   -0.000000        1.000000 
 ---------------------------------------------------
 
*** Unpaired Electrons
 Yamaguchi Nd:         3.06
  
**************************************************
 RAS-CI total energy for state   6:   -497.591493900061
  Excitation energy (eV) =  4.679900073069
  State symmetry: A1  (C1       )
  <S^2>      :  0.7500
  Dipole Moment:    0.0259 X    -0.0964 Y    -0.0007 Z
  Trans. Moment:   -0.3109 X     1.4873 Y    -0.0003 Z
  Strength   :  0.264708
  Natural transition orbitals ( 1 -> 6 ):
   e-/hole pair  1 alpha:  ampl =  0.616148 ( 38.0%)   [7 : 8]
   e-/hole pair  2 alpha:  ampl =  0.154642 (  2.4%)   [6 : 9]
   e-/hole pair  1 beta :  ampl =  0.630170 ( 39.7%)   [7 : 8]
   e-/hole pair  2 beta :  ampl =  0.151020 (  2.3%)   [6 : 9]
   Sum of square amplitudes: 0.85

 NATURAL OCCUPATION NUMBERS (higher than 1.0E-05)
            1           2           3           4           5           6
    1   2.0000000   2.0000000   2.0000000   2.0000000   2.0000000   2.0000000
            7           8           9          10          11          12
    1   2.0000000   2.0000000   2.0000000   2.0000000   2.0000000   2.0000000
           13          14          15          16          17          18
    1   2.0000000   2.0000000   2.0000000   2.0000000   2.0000000   2.0000000
           19          20          21          22          23          24
    1   2.0000000   2.0000000   2.0000000   2.0000000   2.0000000   2.0000000
           25          26          27          28          29          30
    1   2.0000000   2.0000000   2.0000000   2.0000000   2.0000000   2.0000000
           31          32          33          34          35          36
    1   2.0000000   2.0000000   2.0000000   2.0000000   2.0000000   2.0000000
           37          38          39          40          41          42
    1   2.0000000   1.9956636   1.9886827   1.9885077   1.9062130   1.8873732
           43          44          45          46          47          48
    1   1.5004648   1.0292570   0.4789743   0.1086991   0.0815956   0.0093026
           49          50          51          52          53          54
    1   0.0089870   0.0034341   0.0018199   0.0018133   0.0016884   0.0009612
           55          56          57          58          59          60
    1   0.0008950   0.0008347   0.0006091   0.0005807   0.0005203   0.0004624
           61          62          63          64          65          66
    1   0.0003866   0.0003852   0.0003120   0.0002590   0.0002204   0.0002099
           67          68          69          70          71          72
    1   0.0002070   0.0001754   0.0001482   0.0000946   0.0000616   0.0000394
           73          74          75          76          77          78
    1   0.0000324   0.0000190   0.0000185   0.0000146   0.0000132   0.0000111
           79
    1   0.0000108

 Head-Gordon Nu:    2.41
 Head-Gordon Nu_nl: 2.24

  Amplitudes : 
  
 | HOLE  | ALPHA   | BETA    | PART  |    AMPLITUDE 
--------------------------------------------------
 |       | 1111000 | 1101000 |       |     6.0898302425945E-01
 |       | 1111000 | 1011000 |       |    -1.7022912006586E-01
 |       | 1111000 | 1010100 |       |    -1.4555050709055E-01
 |       | 1110010 | 1110000 |       |    -2.6623607791975E-01
 |       | 1110001 | 1110000 |       |    -5.5768679824322E-01
 |       | 0111010 | 1110000 |       |     1.4066737751430E-01
--------------------------------------------------
*** Contributions RASCI wfn    Active:  92.59
                                 Hole:   3.20
                                 Part:   4.21

      Mulliken population analysis 
 ---------------------------------------------------
   Atom    Charge (a.u.)   Spin (a.u.)  
 ---------------------------------------------------
   1  C   -0.165404       -0.015091 
   2  C   -0.195432        0.198970 
   3  C    0.118594        0.110440 
   4  C   -0.026567       -0.038948 
   5  C    0.118044        0.114445 
   6  C   -0.195480        0.195237 
   7  H    0.141409        0.003140 
   8  C   -0.193007        0.011999 
   9  C   -0.156270        0.089260 
  10  C   -0.191538        0.099832 
  11  C    0.124425        0.013611 
  12  C   -0.191308        0.107251 
  13  C   -0.156618        0.084639 
  14  C   -0.193180        0.015873 
  15  H    0.151348       -0.000262 
  16  H    0.141442        0.003190 
  17  H    0.142174        0.000129 
  18  H    0.150416        0.001704 
  19  H    0.142215        0.001319 
  20  H    0.142079        0.000204 
  21  H    0.142157        0.001441 
  22  H    0.150502        0.001618 
 ---------------------------------------------------
   Sum:   -0.000000        1.000000 
 ---------------------------------------------------
 
*** Unpaired Electrons
 Yamaguchi Nd:         3.35
  
**************************************************
 RAS-CI total energy for state   7:   -497.591476028089
  Excitation energy (eV) =  4.680386394169
  State symmetry: A1  (C1       )
  <S^2>      :  0.7500
  Dipole Moment:   -0.0257 X     0.0970 Y    -0.0008 Z
  Trans. Moment:    1.4885 X     0.3101 Y    -0.0001 Z
  Strength   :  0.265080
  Natural transition orbitals ( 1 -> 7 ):
   e-/hole pair  1 alpha:  ampl =  0.616087 ( 38.0%)   [7 : 8]
   e-/hole pair  2 alpha:  ampl =  0.153145 (  2.3%)   [6 : 9]
   e-/hole pair  1 beta :  ampl =  0.630340 ( 39.7%)   [7 : 8]
   e-/hole pair  2 beta :  ampl =  0.149723 (  2.2%)   [6 : 9]
   Sum of square amplitudes: 0.85

 NATURAL OCCUPATION NUMBERS (higher than 1.0E-05)
            1           2           3           4           5           6
    1   2.0000000   2.0000000   2.0000000   2.0000000   2.0000000   2.0000000
            7           8           9          10          11          12
    1   2.0000000   2.0000000   2.0000000   2.0000000   2.0000000   2.0000000
           13          14          15          16          17          18
    1   2.0000000   2.0000000   2.0000000   2.0000000   2.0000000   2.0000000
           19          20          21          22          23          24
    1   2.0000000   2.0000000   2.0000000   2.0000000   2.0000000   2.0000000
           25          26          27          28          29          30
    1   2.0000000   2.0000000   2.0000000   2.0000000   2.0000000   2.0000000
           31          32          33          34          35          36
    1   2.0000000   2.0000000   2.0000000   2.0000000   2.0000000   2.0000000
           37          38          39          40          41          42
    1   2.0000000   1.9954630   1.9891531   1.9882312   1.9005108   1.8933541
           43          44          45          46          47          48
    1   1.5000303   1.0281375   0.4827841   0.0997114   0.0880501   0.0098623
           49          50          51          52          53          54
    1   0.0083458   0.0036435   0.0018613   0.0018233   0.0013893   0.0009744
           55          56          57          58          59          60
    1   0.0009058   0.0008923   0.0006337   0.0005664   0.0005449   0.0004315
           61          62          63          64          65          66
    1   0.0004143   0.0003757   0.0003203   0.0002496   0.0002336   0.0002075
           67          68          69          70          71          72
    1   0.0002052   0.0001798   0.0001608   0.0000924   0.0000538   0.0000446
           73          74          75          76          77          78
    1   0.0000313   0.0000184   0.0000182   0.0000165   0.0000143   0.0000117

 Head-Gordon Nu:    2.41
 Head-Gordon Nu_nl: 2.24

  Amplitudes : 
  
 | HOLE  | ALPHA   | BETA    | PART  |    AMPLITUDE 
--------------------------------------------------
 |       | 1111000 | 1101000 |       |     1.7015954216970E-01
 |       | 1111000 | 1100100 |       |     1.4441731692485E-01
 |       | 1111000 | 1011000 |       |     6.0899884030043E-01
 |       | 1110010 | 1110000 |       |     5.5753842111466E-01
 |       | 1110001 | 1110000 |       |    -2.6616373380367E-01
 |       | 0111001 | 1110000 |       |     1.4150963216410E-01
--------------------------------------------------
*** Contributions RASCI wfn    Active:  92.59
                                 Hole:   3.20
                                 Part:   4.21

      Mulliken population analysis 
 ---------------------------------------------------
   Atom    Charge (a.u.)   Spin (a.u.)  
 ---------------------------------------------------
   1  C   -0.154167        0.120727 
   2  C   -0.191054        0.010540 
   3  C    0.122727        0.048575 
   4  C   -0.026604       -0.038962 
   5  C    0.122683        0.044390 
   6  C   -0.190812        0.014463 
   7  H    0.142067        0.000000 
   8  C   -0.193307        0.197927 
   9  C   -0.162308        0.016873 
  10  C   -0.196073        0.110079 
  11  C    0.115934        0.145492 
  12  C   -0.195728        0.102369 
  13  C   -0.161911        0.021168 
  14  C   -0.193118        0.193873 
  15  H    0.150627        0.002301 
  16  H    0.142112       -0.000052 
  17  H    0.141654        0.003013 
  18  H    0.150799        0.000341 
  19  H    0.142031        0.001825 
  20  H    0.141594        0.002936 
  21  H    0.142018        0.001699 
  22  H    0.150838        0.000422 
 ---------------------------------------------------
   Sum:   -0.000000        1.000000 
 ---------------------------------------------------
 
*** Unpaired Electrons
 Yamaguchi Nd:         3.35
  
**************************************************
 RAS-CI total energy for state   8:   -497.569622542594
  Excitation energy (eV) =  5.275049990023
  State symmetry: A1  (C1       )
  <S^2>      :  0.7500
  Dipole Moment:   -0.0026 X     0.0013 Y    -0.0006 Z
  Trans. Moment:   -0.0117 X    -0.0472 Y     0.0000 Z
  Strength   :  0.000306
  Natural transition orbitals ( 1 -> 8 ):
   e-/hole pair  1 alpha:  ampl =  0.400602 ( 16.0%)   [7 : 8]
   e-/hole pair  2 alpha:  ampl =  0.219310 (  4.8%)   [6 : 9]
   e-/hole pair  1 beta :  ampl =  0.498670 ( 24.9%)   [7 : 8]
   e-/hole pair  2 beta :  ampl =  0.251604 (  6.3%)   [6 : 9]
   Sum of square amplitudes: 0.58

 NATURAL OCCUPATION NUMBERS (higher than 1.0E-05)
            1           2           3           4           5           6
    1   2.0000000   2.0000000   2.0000000   2.0000000   2.0000000   2.0000000
            7           8           9          10          11          12
    1   2.0000000   2.0000000   2.0000000   2.0000000   2.0000000   2.0000000
           13          14          15          16          17          18
    1   2.0000000   2.0000000   2.0000000   2.0000000   2.0000000   2.0000000
           19          20          21          22          23          24
    1   2.0000000   2.0000000   2.0000000   2.0000000   2.0000000   2.0000000
           25          26          27          28          29          30
    1   2.0000000   2.0000000   2.0000000   2.0000000   2.0000000   2.0000000
           31          32          33          34          35          36
    1   2.0000000   2.0000000   2.0000000   2.0000000   2.0000000   2.0000000
           37          38          39          40          41          42
    1   2.0000000   1.9918348   1.9902051   1.9346873   1.7200364   1.7031315
           43          44          45          46          47          48
    1   1.6924811   1.1036842   0.3159673   0.2731090   0.1871473   0.0672516
           49          50          51          52          53          54
    1   0.0079412   0.0063168   0.0007883   0.0007664   0.0006969   0.0005971
           55          56          57          58          59          60
    1   0.0005048   0.0004494   0.0003743   0.0003169   0.0002466   0.0002006
           61          62          63          64          65          66
    1   0.0001912   0.0001660   0.0001572   0.0001395   0.0001317   0.0000840
           67          68          69          70          71          72
    1   0.0000759   0.0000710   0.0000623   0.0000496   0.0000258   0.0000203
           73          74          75
    1   0.0000136   0.0000111   0.0000110

 Head-Gordon Nu:    2.73
 Head-Gordon Nu_nl: 2.39

  Amplitudes : 
  
 | HOLE  | ALPHA   | BETA    | PART  |    AMPLITUDE 
--------------------------------------------------
 |       | 1111000 | 1100010 |       |    -1.0833650753731E-01
 |       | 1111000 | 1010100 |       |     2.0888536367539E-01
 |       | 1111000 | 1010001 |       |     1.1200859587975E-01
 |       | 1110100 | 1011000 |       |     2.7880888104408E-01
 |       | 1110010 | 1101000 |       |    -2.2144910122691E-01
 |       | 1110010 | 0111000 |       |     2.6456402466687E-01
 |       | 1110001 | 1011000 |       |     2.2809101188345E-01
 |       | 1101010 | 1110000 |       |    -1.1311259368961E-01
 |       | 1011001 | 1110000 |       |     1.1608241600371E-01
 |       | 0111010 | 1110000 |       |     1.7049056450448E-01
 |  39   | 1111000 | 1111000 |       |     5.0079530312626E-01
 |  40   | 1111000 | 1111000 |       |    -1.2852742834030E-01
 |       | 1110000 | 1110000 |  57   |    -3.9170364480296E-01
--------------------------------------------------
*** Contributions RASCI wfn    Active:  46.22
                                 Hole:  31.72
                                 Part:  22.05

      Mulliken population analysis 
 ---------------------------------------------------
   Atom    Charge (a.u.)   Spin (a.u.)  
 ---------------------------------------------------
   1  C   -0.171827        0.082712 
   2  C   -0.205222       -0.034890 
   3  C    0.134880        0.109472 
   4  C   -0.043612       -0.004213 
   5  C    0.146518        0.102558 
   6  C   -0.190459        0.074386 
   7  H    0.141325        0.001296 
   8  C   -0.180272        0.100757 
   9  C   -0.176065        0.209556 
  10  C   -0.182636        0.087793 
  11  C    0.132911        0.109781 
  12  C   -0.204564       -0.033449 
  13  C   -0.171883        0.095623 
  14  C   -0.187690        0.088304 
  15  H    0.150674        0.001453 
  16  H    0.141915       -0.000590 
  17  H    0.141311        0.001719 
  18  H    0.149298        0.003600 
  19  H    0.141585        0.001498 
  20  H    0.141351        0.001534 
  21  H    0.142212       -0.000569 
  22  H    0.150253        0.001671 
 ---------------------------------------------------
   Sum:   -0.000000        1.000000 
 ---------------------------------------------------
 
*** Unpaired Electrons
 Yamaguchi Nd:         4.17
  
**************************************************
 RAS-CI total energy for state   9:   -497.569611207956
  Excitation energy (eV) =  5.275358421220
  State symmetry: A1  (C1       )
  <S^2>      :  0.7500
  Dipole Moment:    0.0023 X    -0.0008 Y    -0.0006 Z
  Trans. Moment:    0.0465 X    -0.0121 Y    -0.0000 Z
  Strength   :  0.000298
  Natural transition orbitals ( 1 -> 9 ):
   e-/hole pair  1 alpha:  ampl =  0.400248 ( 16.0%)   [7 : 8]
   e-/hole pair  2 alpha:  ampl =  0.229360 (  5.3%)   [6 : 9]
   e-/hole pair  1 beta :  ampl =  0.498435 ( 24.8%)   [7 : 8]
   e-/hole pair  2 beta :  ampl =  0.260580 (  6.8%)   [6 : 9]
   Sum of square amplitudes: 0.58

 NATURAL OCCUPATION NUMBERS (higher than 1.0E-05)
            1           2           3           4           5           6
    1   2.0000000   2.0000000   2.0000000   2.0000000   2.0000000   2.0000000
            7           8           9          10          11          12
    1   2.0000000   2.0000000   2.0000000   2.0000000   2.0000000   2.0000000
           13          14          15          16          17          18
    1   2.0000000   2.0000000   2.0000000   2.0000000   2.0000000   2.0000000
           19          20          21          22          23          24
    1   2.0000000   2.0000000   2.0000000   2.0000000   2.0000000   2.0000000
           25          26          27          28          29          30
    1   2.0000000   2.0000000   2.0000000   2.0000000   2.0000000   2.0000000
           31          32          33          34          35          36
    1   2.0000000   2.0000000   2.0000000   2.0000000   2.0000000   2.0000000
           37          38          39          40          41          42
    1   2.0000000   1.9951787   1.9867854   1.8885862   1.8288373   1.7038737
           43          44          45          46          47          48
    1   1.6278276   1.1045623   0.3668903   0.2091332   0.1544167   0.1137374
           49          50          51          52          53          54
    1   0.0096228   0.0043832   0.0007894   0.0007816   0.0006110   0.0005921
           55          56          57          58          59          60
    1   0.0005293   0.0004132   0.0003756   0.0003187   0.0002785   0.0002310
           61          62          63          64          65          66
    1   0.0002135   0.0001736   0.0001327   0.0001261   0.0001009   0.0000940
           67          68          69          70          71          72
    1   0.0000796   0.0000770   0.0000629   0.0000473   0.0000265   0.0000188
           73          74          75
    1   0.0000127   0.0000120   0.0000101

 Head-Gordon Nu:    2.73
 Head-Gordon Nu_nl: 2.37

  Amplitudes : 
  
 | HOLE  | ALPHA   | BETA    | PART  |    AMPLITUDE 
--------------------------------------------------
 |       | 1111000 | 1100100 |       |     2.1164360664996E-01
 |       | 1111000 | 1100001 |       |    -1.0886761414105E-01
 |       | 1111000 | 1010010 |       |    -1.0970492954495E-01
 |       | 1110100 | 1101000 |       |     2.8473907037441E-01
 |       | 1110010 | 1011000 |       |    -2.2500210192055E-01
 |       | 1110001 | 1101000 |       |    -2.2581133079968E-01
 |       | 1110001 | 0111000 |       |    -2.5726128711737E-01
 |       | 1101001 | 1110000 |       |    -1.1694371665848E-01
 |       | 1011010 | 1110000 |       |    -1.1529717237551E-01
 |       | 0111001 | 1110000 |       |    -1.6675452986312E-01
 |  39   | 1111000 | 1111000 |       |     1.2855150510557E-01
 |  40   | 1111000 | 1111000 |       |     5.0049759808163E-01
 |       | 1110000 | 1110000 |  58   |    -3.9138497190512E-01
--------------------------------------------------
*** Contributions RASCI wfn    Active:  46.25
                                 Hole:  31.71
                                 Part:  22.04

      Mulliken population analysis 
 ---------------------------------------------------
   Atom    Charge (a.u.)   Spin (a.u.)  
 ---------------------------------------------------
   1  C   -0.175222        0.176535 
   2  C   -0.178329        0.129628 
   3  C    0.141787        0.104957 
   4  C   -0.043577       -0.004172 
   5  C    0.129638        0.112642 
   6  C   -0.192908        0.020200 
   7  H    0.141555        0.000335 
   8  C   -0.202914       -0.006893 
   9  C   -0.170185        0.048409 
  10  C   -0.201798        0.005934 
  11  C    0.142716        0.104279 
  12  C   -0.179499        0.127885 
  13  C   -0.174253        0.163208 
  14  C   -0.195382        0.005779 
  15  H    0.149939        0.003043 
  16  H    0.141043        0.002225 
  17  H    0.141929       -0.000097 
  18  H    0.150560        0.000871 
  19  H    0.142073        0.000125 
  20  H    0.141735        0.000091 
  21  H    0.141367        0.002202 
  22  H    0.149727        0.002815 
 ---------------------------------------------------
   Sum:   -0.000000        1.000000 
 ---------------------------------------------------
 
*** Unpaired Electrons
 Yamaguchi Nd:         4.17
  
**************************************************
 RAS-CI total energy for state  10:   -497.562518717180
  Excitation energy (eV) =  5.468354914594
  State symmetry: A1  (C1       )
  <S^2>      :  0.7500
  Dipole Moment:    0.0003 X    -0.0002 Y    -0.0007 Z
  Trans. Moment:    0.0002 X     0.0000 Y     0.0000 Z
  Strength   :  0.000000
  Natural transition orbitals ( 1 -> 10 ):
   e-/hole pair  1 alpha:  ampl =  0.384397 ( 14.8%)   [7 : 8]
   e-/hole pair  2 alpha:  ampl =  0.043159 (  0.2%)   [6 : 9]
   e-/hole pair  1 beta :  ampl =  0.377082 ( 14.2%)   [7 : 8]
   e-/hole pair  2 beta :  ampl =  0.044538 (  0.2%)   [6 : 9]
   Sum of square amplitudes: 0.30

 NATURAL OCCUPATION NUMBERS (higher than 1.0E-05)
            1           2           3           4           5           6
    1   2.0000000   2.0000000   2.0000000   2.0000000   2.0000000   2.0000000
            7           8           9          10          11          12
    1   2.0000000   2.0000000   2.0000000   2.0000000   2.0000000   2.0000000
           13          14          15          16          17          18
    1   2.0000000   2.0000000   2.0000000   2.0000000   2.0000000   2.0000000
           19          20          21          22          23          24
    1   2.0000000   2.0000000   2.0000000   2.0000000   2.0000000   2.0000000
           25          26          27          28          29          30
    1   2.0000000   2.0000000   2.0000000   2.0000000   2.0000000   2.0000000
           31          32          33          34          35          36
    1   2.0000000   2.0000000   2.0000000   2.0000000   2.0000000   2.0000000
           37          38          39          40          41          42
    1   2.0000000   1.9940117   1.9872683   1.9872027   1.9046876   1.9041736
           43          44          45          46          47          48
    1   1.0485053   1.0024970   0.9561363   0.0898641   0.0893352   0.0113762
           49          50          51          52          53          54
    1   0.0113489   0.0054588   0.0010256   0.0010241   0.0007790   0.0007781
           55          56          57          58          59          60
    1   0.0007620   0.0005574   0.0004695   0.0004693   0.0004212   0.0003137
           61          62          63          64          65          66
    1   0.0002429   0.0001962   0.0001957   0.0001352   0.0001351   0.0001220
           67          68          69          70          71          72
    1   0.0001176   0.0000933   0.0000932   0.0000282   0.0000282   0.0000215
           73          74          75          76
    1   0.0000214   0.0000181   0.0000150   0.0000149

 Head-Gordon Nu:    3.34
 Head-Gordon Nu_nl: 3.12

  Amplitudes : 
  
 | HOLE  | ALPHA   | BETA    | PART  |    AMPLITUDE 
--------------------------------------------------
 |       | 1111000 | 0110100 |       |    -3.5713528944191E-01
 |       | 1110100 | 0111000 |       |    -7.1857835277159E-01
 |       | 0111100 | 1110000 |       |    -3.6144306332964E-01
--------------------------------------------------
*** Contributions RASCI wfn    Active:  87.32
                                 Hole:   5.36
                                 Part:   7.32

      Mulliken population analysis 
 ---------------------------------------------------
   Atom    Charge (a.u.)   Spin (a.u.)  
 ---------------------------------------------------
   1  C   -0.178271        0.196325 
   2  C   -0.195047       -0.043256 
   3  C    0.135404        0.078271 
   4  C   -0.003897        0.432295 
   5  C    0.135102        0.078353 
   6  C   -0.195132       -0.043102 
   7  H    0.141918       -0.000532 
   8  C   -0.195078       -0.043634 
   9  C   -0.177761        0.195432 
  10  C   -0.195535       -0.043712 
  11  C    0.134863        0.077904 
  12  C   -0.195404       -0.043334 
  13  C   -0.177779        0.195808 
  14  C   -0.194891       -0.043404 
  15  H    0.150514        0.003103 
  16  H    0.141962       -0.000535 
  17  H    0.142094       -0.000540 
  18  H    0.150142        0.003083 
  19  H    0.142307       -0.000542 
  20  H    0.142020       -0.000537 
  21  H    0.142269       -0.000537 
  22  H    0.150201        0.003090 
 ---------------------------------------------------
   Sum:   -0.000000        1.000000 
 ---------------------------------------------------
 
*** Unpaired Electrons
 Yamaguchi Nd:         3.84
  
**************************************************
 RAS-CI total energy for state  11:   -497.543925900841
  Excitation energy (eV) =  5.974291188427
  State symmetry: A1  (C1       )
  <S^2>      :  0.7500
  Dipole Moment:   -0.0376 X    -0.0045 Y    -0.0007 Z
  Trans. Moment:   -0.0661 X    -0.1184 Y     0.0000 Z
  Strength   :  0.002693
  Natural transition orbitals ( 1 -> 11 ):
   e-/hole pair  1 alpha:  ampl =  0.459306 ( 21.1%)   [7 : 8]
   e-/hole pair  2 alpha:  ampl =  0.297740 (  8.9%)   [6 : 9]
   e-/hole pair  1 beta :  ampl =  0.503268 ( 25.3%)   [7 : 8]
   e-/hole pair  2 beta :  ampl =  0.281100 (  7.9%)   [6 : 9]
   Sum of square amplitudes: 0.69

 NATURAL OCCUPATION NUMBERS (higher than 1.0E-05)
            1           2           3           4           5           6
    1   2.0000000   2.0000000   2.0000000   2.0000000   2.0000000   2.0000000
            7           8           9          10          11          12
    1   2.0000000   2.0000000   2.0000000   2.0000000   2.0000000   2.0000000
           13          14          15          16          17          18
    1   2.0000000   2.0000000   2.0000000   2.0000000   2.0000000   2.0000000
           19          20          21          22          23          24
    1   2.0000000   2.0000000   2.0000000   2.0000000   2.0000000   2.0000000
           25          26          27          28          29          30
    1   2.0000000   2.0000000   2.0000000   2.0000000   2.0000000   2.0000000
           31          32          33          34          35          36
    1   2.0000000   2.0000000   2.0000000   2.0000000   2.0000000   2.0000000
           37          38          39          40          41          42
    1   2.0000000   1.9885217   1.9749038   1.9370953   1.8946626   1.5730007
           43          44          45          46          47          48
    1   1.4574863   1.0289237   0.5157338   0.4582093   0.0966959   0.0348033
           49          50          51          52          53          54
    1   0.0224054   0.0089978   0.0012132   0.0010648   0.0008405   0.0007678
           55          56          57          58          59          60
    1   0.0007214   0.0005751   0.0004652   0.0003627   0.0003421   0.0003159
           61          62          63          64          65          66
    1   0.0002841   0.0002549   0.0002264   0.0001792   0.0001684   0.0001275
           67          68          69          70          71          72
    1   0.0001158   0.0000980   0.0000947   0.0000788   0.0000473   0.0000369
           73          74          75          76          77          78
    1   0.0000304   0.0000274   0.0000236   0.0000184   0.0000135   0.0000107

 Head-Gordon Nu:    3.29
 Head-Gordon Nu_nl: 3.26

  Amplitudes : 
  
 | HOLE  | ALPHA   | BETA    | PART  |    AMPLITUDE 
--------------------------------------------------
 |       | 1111000 | 1100100 |       |     2.1061903399541E-01
 |       | 1111000 | 1010100 |       |    -4.5089853425961E-01
 |       | 1111000 | 0110010 |       |     2.6613021136591E-01
 |       | 1110100 | 1011000 |       |    -1.8630051903133E-01
 |       | 1110010 | 1101000 |       |    -1.2069420025701E-01
 |       | 1110010 | 0111000 |       |    -1.7130018222194E-01
 |       | 1110001 | 1011000 |       |     1.1544591152197E-01
 |       | 1101100 | 1110000 |       |    -1.2468672792128E-01
 |       | 1011100 | 1110000 |       |     2.6459801522672E-01
 |       | 0111010 | 1110000 |       |    -4.3743039358913E-01
 |       | 0111001 | 1110000 |       |    -1.1952878628331E-01
 |  39   | 1111000 | 1111000 |       |     1.7518160638841E-01
 |       | 1110000 | 1110000 |  57   |    -1.0898611502559E-01
--------------------------------------------------
*** Contributions RASCI wfn    Active:  80.60
                                 Hole:  10.74
                                 Part:   8.66

      Mulliken population analysis 
 ---------------------------------------------------
   Atom    Charge (a.u.)   Spin (a.u.)  
 ---------------------------------------------------
   1  C   -0.173370       -0.003580 
   2  C   -0.199030        0.106704 
   3  C    0.130857        0.075642 
   4  C   -0.032275       -0.124617 
   5  C    0.132549       -0.010011 
   6  C   -0.182865        0.221403 
   7  H    0.141719        0.003253 
   8  C   -0.191985        0.188094 
   9  C   -0.172954       -0.018420 
  10  C   -0.186083        0.234175 
  11  C    0.131166        0.041931 
  12  C   -0.197537        0.099213 
  13  C   -0.172742        0.006736 
  14  C   -0.187322        0.167972 
  15  H    0.150280       -0.000011 
  16  H    0.141808        0.001517 
  17  H    0.141621        0.002823 
  18  H    0.150266       -0.000255 
  19  H    0.141808        0.003524 
  20  H    0.142041        0.002395 
  21  H    0.142317        0.001355 
  22  H    0.149731        0.000157 
 ---------------------------------------------------
   Sum:   -0.000000        1.000000 
 ---------------------------------------------------
 
*** Unpaired Electrons
 Yamaguchi Nd:         4.66
  
**************************************************
 RAS-CI total energy for state  12:   -497.543898096228
  Excitation energy (eV) =  5.975047790420
  State symmetry: A1  (C1       )
  <S^2>      :  0.7500
  Dipole Moment:    0.0378 X     0.0041 Y    -0.0007 Z
  Trans. Moment:    0.1188 X    -0.0658 Y    -0.0001 Z
  Strength   :  0.002698
  Natural transition orbitals ( 1 -> 12 ):
   e-/hole pair  1 alpha:  ampl =  0.459911 ( 21.2%)   [7 : 8]
   e-/hole pair  2 alpha:  ampl =  0.294973 (  8.7%)   [6 : 9]
   e-/hole pair  1 beta :  ampl =  0.503768 ( 25.4%)   [7 : 8]
   e-/hole pair  2 beta :  ampl =  0.277987 (  7.7%)   [6 : 9]
   Sum of square amplitudes: 0.69

 NATURAL OCCUPATION NUMBERS (higher than 1.0E-05)
            1           2           3           4           5           6
    1   2.0000000   2.0000000   2.0000000   2.0000000   2.0000000   2.0000000
            7           8           9          10          11          12
    1   2.0000000   2.0000000   2.0000000   2.0000000   2.0000000   2.0000000
           13          14          15          16          17          18
    1   2.0000000   2.0000000   2.0000000   2.0000000   2.0000000   2.0000000
           19          20          21          22          23          24
    1   2.0000000   2.0000000   2.0000000   2.0000000   2.0000000   2.0000000
           25          26          27          28          29          30
    1   2.0000000   2.0000000   2.0000000   2.0000000   2.0000000   2.0000000
           31          32          33          34          35          36
    1   2.0000000   2.0000000   2.0000000   2.0000000   2.0000000   2.0000000
           37          38          39          40          41          42
    1   2.0000000   1.9887657   1.9734295   1.9379337   1.8932356   1.5782550
           43          44          45          46          47          48
    1   1.4542656   1.0288926   0.5250286   0.4466194   0.0985250   0.0342111
           49          50          51          52          53          54
    1   0.0235231   0.0087335   0.0012070   0.0010641   0.0008528   0.0007760
           55          56          57          58          59          60
    1   0.0007140   0.0005629   0.0004826   0.0003591   0.0003443   0.0003203
           61          62          63          64          65          66
    1   0.0002936   0.0002513   0.0002263   0.0001778   0.0001698   0.0001245
           67          68          69          70          71          72
    1   0.0001133   0.0000988   0.0000961   0.0000821   0.0000481   0.0000371
           73          74          75          76          77          78
    1   0.0000299   0.0000283   0.0000242   0.0000171   0.0000134   0.0000109

 Head-Gordon Nu:    3.29
 Head-Gordon Nu_nl: 3.25

  Amplitudes : 
  
 | HOLE  | ALPHA   | BETA    | PART  |    AMPLITUDE 
--------------------------------------------------
 |       | 1111000 | 1100100 |       |    -4.4950173693062E-01
 |       | 1111000 | 1010100 |       |    -2.1105484684333E-01
 |       | 1111000 | 0110001 |       |    -2.6459049288437E-01
 |       | 1110100 | 1101000 |       |    -1.8341051611537E-01
 |       | 1110010 | 1011000 |       |    -1.1725773416736E-01
 |       | 1110001 | 1101000 |       |    -1.1789558471987E-01
 |       | 1110001 | 0111000 |       |     1.7427199534880E-01
 |       | 1101100 | 1110000 |       |     2.6609122081433E-01
 |       | 1011100 | 1110000 |       |     1.2384816785740E-01
 |       | 0111010 | 1110000 |       |    -1.1870691909683E-01
 |       | 0111001 | 1110000 |       |     4.3886248823371E-01
 |  40   | 1111000 | 1111000 |       |     1.7504128905054E-01
 |       | 1110000 | 1110000 |  58   |    -1.0885870504231E-01
--------------------------------------------------
*** Contributions RASCI wfn    Active:  80.60
                                 Hole:  10.74
                                 Part:   8.66

      Mulliken population analysis 
 ---------------------------------------------------
   Atom    Charge (a.u.)   Spin (a.u.)  
 ---------------------------------------------------
   1  C   -0.173404       -0.007384 
   2  C   -0.182362        0.231416 
   3  C    0.132701       -0.003968 
   4  C   -0.032339       -0.124556 
   5  C    0.130530        0.080499 
   6  C   -0.198524        0.117118 
   7  H    0.141701        0.001691 
   8  C   -0.189336        0.152186 
   9  C   -0.172713        0.009004 
  10  C   -0.196303        0.106078 
  11  C    0.131311        0.030719 
  12  C   -0.184504        0.239566 
  13  C   -0.172903       -0.017027 
  14  C   -0.193747        0.171587 
  15  H    0.150364       -0.000075 
  16  H    0.141692        0.003422 
  17  H    0.142152        0.002149 
  18  H    0.149630        0.000194 
  19  H    0.142387        0.001451 
  20  H    0.141583        0.002565 
  21  H    0.141800        0.003599 
  22  H    0.150286       -0.000232 
 ---------------------------------------------------
   Sum:   -0.000000        1.000000 
 ---------------------------------------------------
 
*** Unpaired Electrons
 Yamaguchi Nd:         4.66
  
**************************************************
 RAS-CI total energy for state  13:   -497.527804933109
  Excitation energy (eV) =  6.412965039443
  State symmetry: A1  (C1       )
  <S^2>      :  0.7500
  Dipole Moment:    0.0001 X    -0.0002 Y    -0.0008 Z
  Trans. Moment:   -0.0007 X    -0.0006 Y     0.0000 Z
  Strength   :  0.000000
  Natural transition orbitals ( 1 -> 13 ):
   e-/hole pair  1 alpha:  ampl =  0.412682 ( 17.0%)   [7 : 8]
   e-/hole pair  2 alpha:  ampl =  0.412454 ( 17.0%)   [6 : 9]
   e-/hole pair  1 beta :  ampl =  0.434159 ( 18.8%)   [7 : 8]
   e-/hole pair  2 beta :  ampl =  0.433519 ( 18.8%)   [6 : 9]
   Sum of square amplitudes: 0.73

 NATURAL OCCUPATION NUMBERS (higher than 1.0E-05)
            1           2           3           4           5           6
    1   2.0000000   2.0000000   2.0000000   2.0000000   2.0000000   2.0000000
            7           8           9          10          11          12
    1   2.0000000   2.0000000   2.0000000   2.0000000   2.0000000   2.0000000
           13          14          15          16          17          18
    1   2.0000000   2.0000000   2.0000000   2.0000000   2.0000000   2.0000000
           19          20          21          22          23          24
    1   2.0000000   2.0000000   2.0000000   2.0000000   2.0000000   2.0000000
           25          26          27          28          29          30
    1   2.0000000   2.0000000   2.0000000   2.0000000   2.0000000   2.0000000
           31          32          33          34          35          36
    1   2.0000000   2.0000000   2.0000000   2.0000000   2.0000000   2.0000000
           37          38          39          40          41          42
    1   2.0000000   1.9835009   1.9736334   1.9734945   1.8942251   1.4801657
           43          44          45          46          47          48
    1   1.4796011   1.0098164   0.5240435   0.5237189   0.0935222   0.0222441
           49          50          51          52          53          54
    1   0.0221224   0.0103538   0.0013816   0.0013773   0.0012006   0.0009121
           55          56          57          58          59          60
    1   0.0009105   0.0005282   0.0004652   0.0004638   0.0002859   0.0002675
           61          62          63          64          65          66
    1   0.0002671   0.0002136   0.0002041   0.0001561   0.0001561   0.0001206
           67          68          69          70          71          72
    1   0.0001205   0.0001126   0.0000859   0.0000674   0.0000432   0.0000431
           73          74          75          76          77
    1   0.0000242   0.0000242   0.0000229   0.0000229   0.0000111

 Head-Gordon Nu:    3.41
 Head-Gordon Nu_nl: 3.46

  Amplitudes : 
  
 | HOLE  | ALPHA   | BETA    | PART  |    AMPLITUDE 
--------------------------------------------------
 |       | 1111000 | 1100010 |       |    -4.2981277007077E-01
 |       | 1111000 | 1010001 |       |    -4.2939156056501E-01
 |       | 1101010 | 1110000 |       |     4.0977542441885E-01
 |       | 1011001 | 1110000 |       |     4.0986855882487E-01
--------------------------------------------------
*** Contributions RASCI wfn    Active:  85.93
                                 Hole:   7.15
                                 Part:   6.92

      Mulliken population analysis 
 ---------------------------------------------------
   Atom    Charge (a.u.)   Spin (a.u.)  
 ---------------------------------------------------
   1  C   -0.167312       -0.012246 
   2  C   -0.188299        0.155158 
   3  C    0.121035        0.036540 
   4  C   -0.030563       -0.014381 
   5  C    0.120784        0.037087 
   6  C   -0.188326        0.154560 
   7  H    0.141509        0.002285 
   8  C   -0.188310        0.154575 
   9  C   -0.166848       -0.012642 
  10  C   -0.188820        0.155209 
  11  C    0.120485        0.036063 
  12  C   -0.188530        0.155344 
  13  C   -0.166780       -0.012358 
  14  C   -0.188292        0.154353 
  15  H    0.150121       -0.000332 
  16  H    0.141552        0.002295 
  17  H    0.141688        0.002285 
  18  H    0.149734       -0.000338 
  19  H    0.141900        0.002297 
  20  H    0.141608        0.002281 
  21  H    0.141864        0.002300 
  22  H    0.149801       -0.000333 
 ---------------------------------------------------
   Sum:   -0.000000        1.000000 
 ---------------------------------------------------
 
*** Unpaired Electrons
 Yamaguchi Nd:         4.73
  
**************************************************
 RAS-CI total energy for state  14:   -497.525365517549
  Excitation energy (eV) =  6.479344914120
[...]
||gamma^AB||_anti-symm   =  0.187922
  
Spin-orbit couplings
 Using HF (reference) density for the 2-elec mean-field SOC contribution
KET: S',Sz' (Root  20) =  0.500 0.500
BRA: S ,Sz  (Root  17) =  0.500 0.500
Clebsh-Gordan coefficient: < 0.500, 0.500; 1.000, 0.000| 0.500, 0.500> =  0.577
 Reading 1e-SO integrals
 1e Reduced matrix elements (cm-1)
<S|| Hso(L-) ||S'> =     0.0004513864    -0.0001539119i
<S|| Hso(L0) ||S'> =     0.0000000000     0.5760392564i
<S|| Hso(L+) ||S'> =     0.0004513864     0.0001539119i
 1-elec SOC matrix (cm-1): < B(S,Sz) | Hso(1e) | A(S',Sz') >
                       |Sz'=-0.50>                |Sz'= 0.50>
 <Sz=-0.50|      0.000000     -0.332576i       0.000369      0.000126i
 <Sz= 0.50|     -0.000369      0.000126i       0.000000      0.332576i
1-elec SOCC =     0.470334406 cm-1
 Reading 2e-SOMF integrals
 2e-SOMF Reduced matrix elements (cm-1)
<S|| Hso(L-) ||S'> =    -0.0002493345     0.0000128530i
<S|| Hso(L0) ||S'> =     0.0000000000    -0.6376121805i
<S|| Hso(L+) ||S'> =    -0.0002493345    -0.0000128530i
 2-elec mean-field SOC matrix (cm-1): < B(S,Sz) | Hso(2e-mf) | A(S',Sz') >
                       |Sz'=-0.50>                |Sz'= 0.50>
 <Sz=-0.50|      0.000000      0.368126i      -0.000204     -0.000010i
 <Sz= 0.50|      0.000204     -0.000010i       0.000000     -0.368126i
 Total mean-field SOC matrix (cm-1): < B(S,Sz) | Hsomf | A(S',Sz') >
                       |Sz'=-0.50>                |Sz'= 0.50>
 <Sz=-0.50|      0.000000      0.035549i       0.000165      0.000115i
 <Sz= 0.50|     -0.000165      0.000115i       0.000000     -0.035549i
Mean-Field SOCC =     0.050274887 cm-1
   
**************************************************
State A: Root 20
State B: Root 18
  
Angular momentum components (a.u.)
< B | Lx | A > =     0.000056193i
< B | Ly | A > =     0.000009696i
< B | Lz | A > =    -0.021410496i
  
Norm of one-particle transition density matrix
||gamma^AB||_total       =  0.409738
||gamma^AB||_symmetrized =  0.396254
||gamma^AB||_anti-symm   =  0.104249
  
Spin-orbit couplings
 Using HF (reference) density for the 2-elec mean-field SOC contribution
KET: S',Sz' (Root  20) =  0.500 0.500
BRA: S ,Sz  (Root  18) =  0.500 0.500
Clebsh-Gordan coefficient: < 0.500, 0.500; 1.000, 0.000| 0.500, 0.500> =  0.577
 Reading 1e-SO integrals
 1e Reduced matrix elements (cm-1)
<S|| Hso(L-) ||S'> =    -0.0019367733    -0.0013763789i
<S|| Hso(L0) ||S'> =     0.0000000000    -0.0313251049i
<S|| Hso(L+) ||S'> =    -0.0019367733     0.0013763789i
 1-elec SOC matrix (cm-1): < B(S,Sz) | Hso(1e) | A(S',Sz') >
                       |Sz'=-0.50>                |Sz'= 0.50>
 <Sz=-0.50|      0.000000      0.018086i      -0.001581      0.001124i
 <Sz= 0.50|      0.001581      0.001124i       0.000000     -0.018086i
1-elec SOCC =     0.025723572 cm-1
 Reading 2e-SOMF integrals
 2e-SOMF Reduced matrix elements (cm-1)
<S|| Hso(L-) ||S'> =     0.0008211122     0.0006637308i
<S|| Hso(L0) ||S'> =     0.0000000000     0.0348057161i
<S|| Hso(L+) ||S'> =     0.0008211122    -0.0006637308i
 2-elec mean-field SOC matrix (cm-1): < B(S,Sz) | Hso(2e-mf) | A(S',Sz') >
                       |Sz'=-0.50>                |Sz'= 0.50>
 <Sz=-0.50|      0.000000     -0.020095i       0.000670     -0.000542i
 <Sz= 0.50|     -0.000670     -0.000542i       0.000000      0.020095i
 Total mean-field SOC matrix (cm-1): < B(S,Sz) | Hsomf | A(S',Sz') >
                       |Sz'=-0.50>                |Sz'= 0.50>
 <Sz=-0.50|      0.000000     -0.002010i      -0.000911      0.000582i
 <Sz= 0.50|      0.000911      0.000582i       0.000000      0.002010i
Mean-Field SOCC =     0.003226948 cm-1
   
**************************************************
State A: Root 20
State B: Root 19
  
Angular momentum components (a.u.)
< B | Lx | A > =    -0.000031723i
< B | Ly | A > =     0.000005741i
< B | Lz | A > =     0.174663209i
  
Norm of one-particle transition density matrix
||gamma^AB||_total       =  0.446818
||gamma^AB||_symmetrized =  0.332768
||gamma^AB||_anti-symm   =  0.298181
  
Spin-orbit couplings
 Using HF (reference) density for the 2-elec mean-field SOC contribution
KET: S',Sz' (Root  20) =  0.500 0.500
BRA: S ,Sz  (Root  19) =  0.500 0.500
Clebsh-Gordan coefficient: < 0.500, 0.500; 1.000, 0.000| 0.500, 0.500> =  0.577
 Reading 1e-SO integrals
 1e Reduced matrix elements (cm-1)
<S|| Hso(L-) ||S'> =    -0.0002269533     0.0003732955i
<S|| Hso(L0) ||S'> =     0.0000000000     1.9819416442i
<S|| Hso(L+) ||S'> =    -0.0002269533    -0.0003732955i
 1-elec SOC matrix (cm-1): < B(S,Sz) | Hso(1e) | A(S',Sz') >
                       |Sz'=-0.50>                |Sz'= 0.50>
 <Sz=-0.50|      0.000000     -1.144275i      -0.000185     -0.000305i
 <Sz= 0.50|      0.000185     -0.000305i       0.000000      1.144275i
1-elec SOCC =     1.618248655 cm-1
 Reading 2e-SOMF integrals
 2e-SOMF Reduced matrix elements (cm-1)
<S|| Hso(L-) ||S'> =     0.0000290443    -0.0002708311i
<S|| Hso(L0) ||S'> =     0.0000000000    -2.0433799875i
<S|| Hso(L+) ||S'> =     0.0000290443     0.0002708311i
 2-elec mean-field SOC matrix (cm-1): < B(S,Sz) | Hso(2e-mf) | A(S',Sz') >
                       |Sz'=-0.50>                |Sz'= 0.50>
 <Sz=-0.50|      0.000000      1.179746i       0.000024      0.000221i
 <Sz= 0.50|     -0.000024      0.000221i       0.000000     -1.179746i
 Total mean-field SOC matrix (cm-1): < B(S,Sz) | Hsomf | A(S',Sz') >
                       |Sz'=-0.50>                |Sz'= 0.50>
 <Sz=-0.50|      0.000000      0.035471i      -0.000162     -0.000084i
 <Sz= 0.50|      0.000162     -0.000084i       0.000000     -0.035471i
Mean-Field SOCC =     0.050164857 cm-1
   
**************************************************
RAS-CI timing summary (seconds)
  CPU time      26823.81s
  System time       0.73s
  Wall time     31385.61s
Detailed CPU timing summary
     Fock matrix         :       100.9724 s
     Integrals           :       580.4133 s
     Addressing matrices :         0.0003 s
     Guesses             :         0.0911 s
     Iterations          :     16795.1871 s
     Properties          :      9347.1431 s
     RAS-CI(2) correction:         0.0000 s
  
 
 --------------------------------------------------------------
 
                    Orbital Energies (a.u.)
 --------------------------------------------------------------
 
 Alpha MOs
 -- Occupied --
-11.2437 -11.2435 -11.2435 -11.2397 -11.2372 -11.2372 -11.2372 -11.2374
-11.2373 -11.2373 -11.2355 -11.2355 -11.2355  -1.1959  -1.1223  -1.1222
 -1.0250  -1.0249  -1.0125  -0.9201  -0.8504  -0.8371  -0.8370  -0.7143
 -0.7144  -0.6950  -0.6950  -0.6518  -0.6001  -0.6000  -0.5925  -0.5739
 -0.5602  -0.5464  -0.5463  -0.5349  -0.4756  -0.4754  -0.4738  -0.4738
 -0.3359  -0.3554  -0.3554  -0.2085
 -- Virtual --
  0.1113   0.1067   0.1067   0.1403   0.1546   0.1547   0.1747   0.1747
  0.1902   0.2166   0.2386   0.2386   0.2524   0.2525   0.3316   0.3316
  0.3447   0.3756   0.3885   0.3986   0.4065   0.4065   0.4192   0.4193
  0.4341   0.4363   0.4399   0.4399   0.4603   0.4603   0.4738   0.4738
  0.4948   0.4949   0.5024   0.5074   0.5075   0.5212   0.5529   0.5552
  0.5538   0.5673   0.5674   0.5795   0.5909   0.5909   0.5917   0.5977
  0.5978   0.6062   0.6131   0.6131   0.6274   0.6275   0.6358   0.6418
  0.6419   0.6806   0.6807   0.6844   0.7038   0.7038   0.7115   0.7116
  0.7359   0.7690   0.7723   0.7724   0.7745   0.7762   0.7974   0.8079
  0.8079   0.8478   0.8479   0.8766   0.8837   0.9007   0.9132   0.9132
  0.9251   0.9252   0.9317   0.9317   0.9353   0.9797   0.9873   0.9874
  1.0099   1.0326   1.0327   1.0391   1.0392   1.0602   1.0629   1.0629
  1.0781   1.0782   1.1243   1.1263   1.1278   1.1326   1.1327   1.1333
  1.1334   1.1411   1.1838   1.1839   1.1905   1.1961   1.1961   1.1970
  1.1971   1.2053   1.2149   1.2366   1.2989   1.2990   1.3021   1.3022
  1.3477   1.3869   1.3870   1.4054   1.4054   1.4218   1.4275   1.4286
  1.4484   1.4484   1.4913   1.4913   1.5106   1.5107   1.5107   1.5106
  1.5104   1.5488   1.5489   1.5528   1.5530   1.5561   1.5858   1.6044
  1.6055   1.6112   1.6113   1.6147   1.6267   1.6269   1.6771   1.6833
  1.7146   1.7148   1.7175   1.7537   1.7538   1.7586   1.7587   1.7978
  1.8266   1.8268   1.9107   1.9347   1.9372   1.9372   2.0482   2.0482
  2.0556   2.0560   2.0628   2.0876   2.1571   2.1574   2.1891   2.2204
  2.2473   2.2478   2.3124   2.3375   2.3382   2.3603   2.3604   2.3975
  2.4546   2.4546   2.4717   2.4722   2.4934   2.5058   2.5548   2.5577
  2.5577   2.5779   2.6099   2.6100   2.6258   2.6260   2.6719   2.6719
  2.6754   2.7272   2.7273   2.7647   2.7693   2.7727   2.7728   2.7911
  2.7911   2.7980   2.8216   2.8217   2.8439   2.8626   2.8653   2.8709
  2.8734   2.8734   2.8896   2.8898   2.9274   2.9469   2.9471   2.9517
  2.9789   2.9790   2.9920   3.0188   3.0189   3.0281   3.0281   3.0312
  3.0494   3.0589   3.0589   3.0746   3.1094   3.1310   3.1311   3.1460
  3.1575   3.1577   3.2089   3.2090   3.2123   3.2123   3.2146   3.2188
  3.2561   3.2564   3.2641   3.2643   3.2657   3.2760   3.2771   3.2772
  3.3065   3.3065   3.3188   3.3189   3.3251   3.3361   3.3369   3.3369
  3.3652   3.3797   3.3857   3.3858   3.3864   3.3865   3.4306   3.4361
  3.4408   3.4409   3.4471   3.4521   3.4522   3.4811   3.4811   3.4933
  3.5112   3.5326   3.5328   3.5437   3.5666   3.5752   3.5754   3.5837
  3.5877   3.5877   3.6190   3.6190   3.6295   3.6435   3.6437   3.6461
  3.6564   3.6564   3.6779   3.6801   3.6804   3.6844   3.6847   3.7715
  3.7865   3.7914   3.7958   3.7959   3.7996   3.7997   3.8317   3.8421
  3.8423   3.8439   3.8440   3.8444   3.8872   3.8874   3.9109   3.9110
  3.9429   3.9430   3.9747   3.9812   4.0380   4.0434   4.0435   4.0603
  4.0858   4.0860   4.0869   4.1058   4.1085   4.1179   4.1180   4.1400
  4.1403   4.1441   4.1443   4.1821   4.1822   4.1858   4.2196   4.2269
  4.2270   4.2430   4.2432   4.2665   4.2832   4.2874   4.3065   4.3067
  4.3248   4.3249   4.3597   4.3600   4.3662   4.3787   4.3848   4.3849
  4.4187   4.4189   4.4412   4.4412   4.4701   4.4702   4.4720   4.4763
  4.5193   4.5310   4.5412   4.5413   4.5535   4.5538   4.5868   4.5990
  4.5992   4.6010   4.6169   4.6430   4.6548   4.6550   4.6695   4.6783
  4.6784   4.7084   4.7086   4.7121   4.7245   4.7246   4.7293   4.7294
  4.7878   4.8677   4.8681   4.8776   4.8847   4.8847   4.9330   4.9331
  4.9386   4.9854   4.9855   5.0085   5.0195   5.0422   5.0689   5.0693
  5.1559   5.1967   5.1968   5.1982   5.1985   5.2038   5.2211   5.2493
  5.2739   5.2741   5.3445   5.3448   5.3608   5.3669   5.3672   5.3934
  5.4117   5.4120   5.4319   5.5027   5.5819   5.5821   5.6031   5.6407
  5.6411   5.6852   5.6854   5.7403   5.7405   5.8337   5.8897   5.8901
  5.9898   5.9900   5.9951   6.0023   6.1327   6.1329   6.2243   6.2602
  6.3889   6.3891   6.4304   6.4305   6.4309   6.5898   6.7578   6.7582
  6.9696   6.9698   7.4605   8.7356  11.7372  11.7395  13.1641  13.5808
 13.5840  13.7854  14.5149  14.5172  14.7110  16.1943  16.5227  16.5240
 
 Beta MOs
 -- Occupied --
-11.2437 -11.2435 -11.2434 -11.2397 -11.2358 -11.2358 -11.2358 -11.2344
-11.2343 -11.2343 -11.2340 -11.2339 -11.2339  -1.1903  -1.1133  -1.1133
 -1.0153  -1.0152  -1.0083  -0.9033  -0.8469  -0.8311  -0.8310  -0.7091
 -0.7091  -0.6916  -0.6915  -0.6494  -0.5971  -0.5970  -0.5882  -0.5715
 -0.5426  -0.5436  -0.5435  -0.5309  -0.4732  -0.4730  -0.4426  -0.4425
 -0.3246  -0.3082  -0.3082
 -- Virtual --
  0.0070   0.1201   0.1448   0.1448   0.1410   0.1553   0.1553   0.1752
  0.1753   0.1906   0.2175   0.2396   0.2396   0.2739   0.2739   0.3327
  0.3327   0.3458   0.3796   0.3924   0.3994   0.4102   0.4103   0.4226
  0.4227   0.4352   0.4455   0.4494   0.4495   0.4631   0.4632   0.4796
  0.4796   0.5074   0.5074   0.5040   0.5095   0.5096   0.5236   0.5649
  0.5606   0.5667   0.5687   0.5687   0.5809   0.5988   0.5989   0.6049
  0.6009   0.6010   0.6106   0.6163   0.6163   0.6301   0.6302   0.6370
  0.6497   0.6497   0.6845   0.6846   0.6858   0.7060   0.7060   0.7167
  0.7168   0.7379   0.7722   0.7744   0.7745   0.7776   0.7794   0.7988
  0.8099   0.8099   0.8559   0.8559   0.8785   0.8848   0.9106   0.9156
  0.9156   0.9283   0.9284   0.9342   0.9342   0.9461   0.9817   0.9883
  0.9885   1.0132   1.0352   1.0354   1.0444   1.0444   1.0643   1.0654
  1.0654   1.0802   1.0803   1.1259   1.1272   1.1309   1.1356   1.1357
  1.1388   1.1389   1.1416   1.1851   1.1852   1.1952   1.2005   1.2007
  1.1996   1.1997   1.2070   1.2160   1.2403   1.2999   1.3001   1.3045
  1.3046   1.3543   1.3938   1.3939   1.4063   1.4063   1.4225   1.4286
  1.4305   1.4506   1.4506   1.4928   1.4929   1.5122   1.5122   1.5132
  1.5134   1.5149   1.5549   1.5550   1.5537   1.5539   1.5630   1.5868
  1.6086   1.6074   1.6139   1.6139   1.6183   1.6285   1.6286   1.6791
  1.6865   1.7173   1.7175   1.7183   1.7560   1.7561   1.7642   1.7643
  1.8021   1.8299   1.8300   1.9128   1.9364   1.9391   1.9392   2.0513
  2.0514   2.0578   2.0581   2.0653   2.0887   2.1588   2.1591   2.1908
  2.2216   2.2485   2.2491   2.3189   2.3388   2.3395   2.3681   2.3681
  2.3989   2.4634   2.4634   2.4732   2.4737   2.4943   2.5186   2.5618
  2.5640   2.5640   2.5791   2.6137   2.6138   2.6302   2.6303   2.6739
  2.6739   2.6776   2.7283   2.7283   2.7687   2.7711   2.7758   2.7759
  2.7939   2.7939   2.8016   2.8276   2.8277   2.8453   2.8653   2.8687
  2.8767   2.8771   2.8772   2.8918   2.8920   2.9320   2.9501   2.9502
  2.9559   2.9831   2.9832   2.9967   3.0207   3.0208   3.0317   3.0317
  3.0336   3.0517   3.0635   3.0636   3.0760   3.1107   3.1324   3.1325
  3.1487   3.1599   3.1601   3.2099   3.2100   3.2168   3.2168   3.2172
  3.2223   3.2586   3.2588   3.2682   3.2683   3.2691   3.2815   3.2807
  3.2808   3.3092   3.3092   3.3221   3.3221   3.3271   3.3369   3.3400
  3.3400   3.3707   3.3833   3.3883   3.3884   3.3897   3.3898   3.4339
  3.4367   3.4440   3.4440   3.4495   3.4539   3.4539   3.4845   3.4846
  3.4947   3.5132   3.5340   3.5341   3.5466   3.5691   3.5763   3.5765
  3.5870   3.5913   3.5913   3.6216   3.6216   3.6312   3.6469   3.6471
  3.6487   3.6583   3.6584   3.6792   3.6830   3.6832   3.6862   3.6865
  3.7732   3.7905   3.7949   3.7977   3.7978   3.8006   3.8006   3.8328
  3.8443   3.8445   3.8450   3.8451   3.8475   3.8888   3.8890   3.9137
  3.9137   3.9445   3.9446   3.9777   3.9818   4.0394   4.0446   4.0447
  4.0625   4.0876   4.0877   4.0878   4.1075   4.1105   4.1189   4.1190
  4.1413   4.1416   4.1457   4.1459   4.1828   4.1828   4.1864   4.2204
  4.2285   4.2286   4.2451   4.2453   4.2674   4.2844   4.2887   4.3083
  4.3085   4.3265   4.3267   4.3607   4.3611   4.3684   4.3801   4.3862
  4.3863   4.4194   4.4196   4.4424   4.4425   4.4717   4.4718   4.4729
  4.4777   4.5220   4.5319   4.5443   4.5444   4.5544   4.5546   4.5878
  4.6000   4.6002   4.6024   4.6181   4.6438   4.6556   4.6558   4.6705
  4.6794   4.6795   4.7111   4.7113   4.7150   4.7267   4.7268   4.7301
  4.7302   4.7886   4.8705   4.8709   4.8789   4.8854   4.8854   4.9341
  4.9342   4.9396   4.9862   4.9863   5.0117   5.0215   5.0429   5.0706
  5.0710   5.1577   5.1975   5.1976   5.1998   5.2001   5.2044   5.2220
  5.2523   5.2767   5.2769   5.3453   5.3456   5.3617   5.3676   5.3679
  5.3940   5.4125   5.4128   5.4327   5.5033   5.5827   5.5829   5.6048
  5.6416   5.6420   5.6872   5.6874   5.7409   5.7412   5.8342   5.8904
  5.8908   5.9908   5.9909   5.9958   6.0029   6.1336   6.1338   6.2250
  6.2611   6.3894   6.3897   6.4312   6.4313   6.4317   6.5904   6.7584
  6.7588   6.9703   6.9705   7.4611   8.7364  11.7385  11.7408  13.1643
 13.5820  13.5852  13.7881  14.5165  14.5188  14.7120  16.1953  16.5241
 16.5254
 --------------------------------------------------------------
 
          Ground-State Mulliken Net Atomic Charges

     Atom                 Charge (a.u.)
  ----------------------------------------
      1 C                    -0.173995
      2 C                    -0.190251
      3 C                     0.130817
      4 C                    -0.035822
      5 C                     0.130566
      6 C                    -0.190187
      7 H                     0.142163
      8 C                    -0.190065
      9 C                    -0.173594
     10 C                    -0.190671
     11 C                     0.130302
     12 C                    -0.190497
     13 C                    -0.173519
     14 C                    -0.190064
     15 H                     0.151218
     16 H                     0.142202
     17 H                     0.142338
     18 H                     0.150838
     19 H                     0.142548
     20 H                     0.142263
     21 H                     0.142511
     22 H                     0.150900
  ----------------------------------------
  Sum of atomic charges =     0.000000

 -----------------------------------------------------------------
                    Cartesian Multipole Moments
 -----------------------------------------------------------------
    Charge (ESU x 10^10)
                -0.0000
    Dipole Moment (Debye)
         X      -0.0004      Y      -0.0001      Z       0.0015
       Tot       0.0016
    Quadrupole Moments (Debye-Ang)
        XX     -65.9076     XY       0.0017     YY     -65.8882
        XZ       0.0061     YZ      -0.0010     ZZ     -83.1670
    Octopole Moments (Debye-Ang^2)
       XXX       0.5107    XXY      -0.6197    XYY      -0.5135
       YYY       0.6081    XXZ       0.0326    XYZ      -0.0201
       YYZ       0.0092    XZZ      -0.0006    YZZ       0.0005
       ZZZ       0.0013
    Hexadecapole Moments (Debye-Ang^3)
      XXXX   -1208.6534   XXXY      -0.0292   XXYY    -402.8330
      XYYY       0.0644   YYYY   -1208.1738   XXXZ       0.0360
      XXYZ       0.0290   XYYZ       0.0445   YYYZ      -0.0608
      XXZZ    -271.6147   XYZZ      -0.0018   YYZZ    -271.5681
      XZZZ       0.0086   YZZZ      -0.0011   ZZZZ     -98.5308
 -----------------------------------------------------------------
 Total job time:  32161.44s(wall), 27594.79s(cpu) 
 Thu Apr  4 01:57:16 2024

======= MOLDEN-FORMATTED INPUT FILE FOLLOWS =======
[Molden Format]
[Atoms] (Angs)
  C      1    6      0.62436798     -2.73626214      0.00031643
  C      2    6     -0.70157359     -2.33613482     -0.00016497
  C      3    6     -1.04198248     -0.96709712     -0.00084390
  C      4    6     -0.00005481      0.00007728     -0.00078316
  C      5    6      1.35845885     -0.41902044     -0.00069951
  C      6    6      1.64521047     -1.80078036      0.00050704
  H      7    1      2.68039781     -2.12018594      0.00107922
  C      8    6     -2.38241778     -0.52446337     -0.00016828
  C      9    6     -2.68173158      0.82733121      0.00104712
  C     10    6     -1.67264212      1.77591527      0.00049042
  C     11    6     -0.31634690      1.38622343     -0.00052931
  C     12    6      0.73677529      2.32527769     -0.00057477
  C     13    6      2.05760655      1.90848703      0.00031420
  C     14    6      2.37430062      0.56061737      0.00030678
  H     15    1      0.86423664     -3.79156668      0.00175492
  H     16    1     -1.49545799     -3.07315912     -0.00141561
  H     17    1     -3.17639353     -1.26133398     -0.00046894
  H     18    1     -3.71635643      1.14679177      0.00190819
  H     19    1     -1.91342491      2.83159982      0.00055582
  H     20    1      3.40936486      0.24074642      0.00168506
  H     21    1      0.49658312      3.38108588     -0.00074208
  H     22    1      2.85122754      2.64499573      0.00033492

======= END OF MOLDEN-FORMATTED INPUT FILE =======


        *************************************************************
        *                                                           *
        *  Thank you very much for using Q-Chem.  Have a nice day.  *
        *                                                           *
        *************************************************************


