                  Welcome to Q-Chem
     A Quantum Leap Into The Future Of Chemistry


 Q-Chem 6.0 (devel), Q-Chem, Inc., Pleasanton, CA (2022)

 E. Epifanovsky,  A. T. B. Gilbert,  Xintian Feng,  Joonho Lee,  Yuezhi Mao,  
 N. Mardirossian,  P. Pokhilko,  A. White,  M. Wormit,  M. P. Coons,  
 A. L. Dempwolff,  Zhengting Gan,  D. Hait,  P. R. Horn,  L. D. Jacobson,  
 I. Kaliman,  J. Kussmann,  A. W. Lange,  Ka Un Lao,  D. S. Levine,  Jie Liu,  
 S. C. McKenzie,  A. F. Morrison,  K. Nanda,  F. Plasser,  D. R. Rehn,  
 M. L. Vidal,  Zhi-Qiang You,  Ying Zhu,  B. Alam,  B. Albrecht,  
 A. Aldossary,  E. Alguire,  J. H. Andersen,  V. Athavale,  D. Barton,  
 K. Begam,  A. Behn,  N. Bellonzi,  Y. A. Bernard,  E. J. Berquist,  
 H. Burton,  A. Carreras,  K. Carter-Fenk,  Romit Chakraborty,  
 Chandrima Chakravarty,  Junhan Chen,  A. D. Chien,  K. D. Closser,  
 V. Cofer-Shabica,  L. Cunha,  S. Dasgupta,  Jia Deng,  M. de Wergifosse,  
 M. Diedenhofen,  Hainam Do,  S. Ehlert,  Po-Tung Fang,  S. Fatehi,  
 Qingguo Feng,  T. Friedhoff,  B. Ganoe,  J. Gayvert,  Qinghui Ge,  
 G. Gidofalvi,  M. Goldey,  J. Gomes,  C. Gonzalez-Espinoza,  S. Gulania,  
 A. Gunina,  J. A. Gyamfi,  M. W. D. Hanson-Heine,  P. H. P. Harbach,  
 A. W. Hauser,  M. F. Herbst,  M. Hernandez Vera,  M. Hodecker,  
 Z. C. Holden,  S. Houck,  Xunkun Huang,  Kerwin Hui,  B. C. Huynh,  
 K. Ikeda,  M. Ivanov,  Hyunjun Ji,  Zuxin Jin,  Hanjie Jiang,  B. Kaduk,  
 S. Kaehler,  R. Kang,  K. Khistyaev,  Jaehoon Kim,  Yongbin Kim,  
 P. Klunzinger,  Z. Koczor-Benda,  Joong Hoon Koh,  D. Kosenkov,  
 Saikiran Kotaru,  L. Koulias,  T. Kowalczyk,  C. M. Krauter,  K. Kue,  
 A. Kunitsa,  T. Kus,  A. Landau,  K. V. Lawler,  D. Lefrancois,  S. Lehtola,  
 Rain Li,  Shaozhi Li,  Yi-Pei Li,  Jiashu Liang,  M. Liebenthal,  
 Hung-Hsuan Lin,  You-Sheng Lin,  Fenglai Liu,  Kuan-Yu Liu,  
 M. Loipersberger,  A. Luenser,  C. Malbon,  A. Manjanath,  P. Manohar,  
 E. Mansoor,  S. F. Manzer,  Shan-Ping Mao,  A. V. Marenich,  T. Markovich,  
 S. Mason,  F. Matz,  S. A. Maurer,  P. F. McLaughlin,  M. F. S. J. Menger,  
 J.-M. Mewes,  S. A. Mewes,  P. Morgante,  Mohammad Mostafanejad,  
 J. W. Mullinax,  K. J. Oosterbaan,  G. Paran,  V. Parravicini,  
 Alexander C. Paul,  Suranjan K. Paul,  F. Pavosevic,  Zheng Pei,  S. Prager,  
 E. I. Proynov,  E. Ramos,  B. Rana,  A. E. Rask,  A. Rettig,  R. M. Richard,  
 F. Rob,  E. Rossomme,  T. Scheele,  M. Scheurer,  M. Schneider,  
 P. E. Schneider,  N. Sergueev,  S. M. Sharada,  Hengyuan Shen,  
 W. Skomorowski,  D. W. Small,  C. J. Stein,  Yingli Su,  Yu-Chuan Su,  
 E. J. Sundstrom,  Zhen Tao,  J. Thirman,  Hung-Yi Tsai,  T. Tsuchimochi,  
 N. M. Tubman,  C. Utku,  S. P. Veccham,  O. Vydrov,  J. Wenzel,  
 Jonathan Wong,  J. Witte,  A. Yamada,  Chou-Hsun Yang,  Kun Yao,  
 S. Yeganeh,  S. R. Yost,  A. Zech,  F. Zeller,  Igor Ying Zhang,  
 Xing Zhang,  Yu Zhang,  D. Zuev,  A. Aspuru-Guzik,  A. T. Bell,  
 N. A. Besley,  K. B. Bravaya,  B. R. Brooks,  D. Casanova,  Jeng-Da Chai,  
 Hsing-Ta Chen,  S. Coriani,  C. J. Cramer,  A. E. DePrince, III,  
 R. A. DiStasio Jr.,  A. Dreuw,  B. D. Dunietz,  T. R. Furlani,  
 W. A. Goddard III,  S. Grimme,  S. Hammes-Schiffer,  T. Head-Gordon,  
 W. J. Hehre,  Chao-Ping Hsu,  T.-C. Jagau,  Yousung Jung,  A. Klamt,  
 Jing Kong,  D. S. Lambrecht,  Xiangyuan Li,  WanZhen Liang,  N. J. Mayhall,  
 C. W. McCurdy,  J. B. Neaton,  T. Neudecker,  C. Ochsenfeld,  
 J. A. Parkhill,  R. Peverati,  V. A. Rassolov,  Haisheng Ren,  Yihan Shao,  
 L. V. Slipchenko,  R. P. Steele,  J. E. Subotnik,  A. J. W. Thom,  
 A. Tkatchenko,  D. G. Truhlar,  T. Van Voorhis,  Fan Wang,  
 T. A. Wesolowski,  K. B. Whaley,  H. L. Woodcock III,  P. M. Zimmerman,  
 S. Faraji,  P. M. W. Gill,  M. Head-Gordon,  J. M. Herbert,  A. I. Krylov

 Contributors to earlier versions of Q-Chem not listed above: 
 R. D. Adamson,  B. Austin,  R. Baer,  J. Baker,  G. J. O. Beran,  
 K. Brandhorst,  S. T. Brown,  E. F. C. Byrd,  Arup K. Chakraborty,  
 G. K. L. Chan,  Chun-Min Chang,  Yunqing Chen,  C.-L. Cheng,  
 Siu Hung Chien,  D. M. Chipman,  D. L. Crittenden,  H. Dachsel,  
 R. J. Doerksen,  A. D. Dutoi,  R. G. Edgar,  J. Fosso-Tande,  
 L. Fusti-Molnar,  D. Ghosh,  A. Ghysels,  A. Golubeva-Zadorozhnaya,  
 J. Gonthier,  M. S. Gordon,  S. R. Gwaltney,  G. Hawkins,  J. E. Herr,  
 A. Heyden,  S. Hirata,  E. G. Hohenstein,  G. Kedziora,  F. J. Keil,  
 C. Kelley,  Jihan Kim,  R. A. King,  R. Z. Khaliullin,  P. P. Korambath,  
 W. Kurlancheek,  A. Laurent,  A. M. Lee,  M. S. Lee,  S. V. Levchenko,  
 Ching Yeh Lin,  D. Liotard,  E. Livshits,  R. C. Lochan,  I. Lotan,  
 L. A. Martinez-Martinez,  P. E. Maslen,  N. Nair,  D. P. O'Neill,  
 D. Neuhauser,  E. Neuscamman,  C. M. Oana,  R. Olivares-Amaya,  R. Olson,  
 T. M. Perrine,  B. Peters,  P. A. Pieniazek,  A. Prociuk,  Y. M. Rhee,  
 J. Ritchie,  M. A. Rohrdanz,  E. Rosta,  N. J. Russ,  H. F. Schaefer III,  
 M. W. Schmidt,  N. E. Schultz,  S. Sharma,  N. Shenvi,  C. D. Sherrill,  
 A. C. Simmonett,  A. Sodt,  T. Stein,  D. Stuck,  K. S. Thanthiriwatte,  
 V. Vanovschi,  L. Vogt,  Tao Wang,  A. Warshel,  M. A. Watson,  
 C. F. Williams,  Q. Wu,  X. Xu,  Jun Yang,  W. Zhang,  Yan Zhao

   Please cite Q-Chem as follows:
  "Software for the frontiers of quantum chemistry:
   An overview of developments in the Q-Chem 5 package"
   J. Chem. Phys. 155, 084801 (2021)
   https://doi.org/10.1063/5.0055522 (open access)

 Q-Chem 6.0.1 for Intel X86 EM64T Linux

 Parts of Q-Chem use Armadillo 9.900.5 (Nocturnal Misbehaviour).
 http://arma.sourceforge.net/

 Q-Chem begins on Thu Apr 18 18:22:04 2024  

 Host: atlas-301
0

     Scratch files written to ./qchem45355//
 Processing $rem in /scratch/abel/SOFTWARE/qchem/config/preferences:
 Processing $rem in /dipc/acebg/.qchemrc:

 Checking the input file for inconsistencies... 	...done.

--------------------------------------------------------------
User input:
--------------------------------------------------------------
$comment
 TD-DFT/TDA CALCULATION
$end

$molecule
 READ 2Tm_doublet.molecule
$end

$rem
!**REFERENCE***     
JOBTYPE            SP
EXCHANGE           GEN   !gen:specify in $xc_functional
CORRELATION        NONE
BASIS              cc-pVDZ  

!***SCF REFERENCE***
!INPUT_BOHR         TRUE
!SKIP_SCFMAN        FALSE
UNRESTRICTED        TRUE !rectricted-TDDFT not avail in doublets
!SCF_GUESS          core
!SCF_GUESS_MIX      FALSE
!SCF_GUESS_ALWAYS   FALSE
MAX_SCF_CYCLES      999
!SCF_CONVERGENCE    10
!SCF_ALGORITHM       DIIS_GDM !DIIS,DM,DIIS_DM,GDM,DIIS_GDM,GD

!SYMMETRY           TRUE !use of symmetry for calculating integrals
!SYM_IGNORE         FALSE !turn off using symmetry
!SYM_TOL            5 !tolerance for determining point group

!THRESH             14
!SCF_FINAL_PRINT    2 !0,1,2,3

!****CIS****
CIS_N_ROOTS        50
!CIS_CONVERGENCE   10
MAX_CIS_CYCLES     200
!CIS_SINGLETS      true
!CIS_TRIPLETS      true
CALC_SOC           2 !not available in doublets in TDDFT
STS_ANGMOM        true !orbit. ang. moment. between states
!RPA                FALSE !in default RPA=1 and TDA calc used as guess of TDDFT

!****MEMORY****
!MEM_TOTAL          80000        !Default 2000 MB
!MEM_STATIC         25000         !Default 64 MB

!**Molecular Properties and Analysis **
!POP_MULLIKEN       FALSE   !Run Mulliken population analysis
!LOWDIN_POPULATION  FALSE  !Run Löwdin population analysis
GUI                2
!STATE_ANALYSIS     TRUE
!MOLDEN_FORMAT      FALSE
!PRINT_ORBITALS     5
!CIS_MOMENTS        TRUE !TDA Excited-State Multipoles
$end

$xc_functional
!**50-50 functional**
X  HF    0.50
X  S     0.08
X  B     0.42
C  VWN   0.19
C  LYP   0.81
$end

--------------------------------------------------------------
 ----------------------------------------------------------------
             Standard Nuclear Orientation (Angstroms)
    I     Atom           X                Y                Z
 ----------------------------------------------------------------
    1      C       0.6243679838    -2.7362621432     0.0003164261
    2      C      -0.7015735948    -2.3361348215    -0.0001649656
    3      C      -1.0419824835    -0.9670971198    -0.0008439034
    4      C      -0.0000548132     0.0000772801    -0.0007831605
    5      C       1.3584588456    -0.4190204443    -0.0006995145
    6      C       1.6452104651    -1.8007803647     0.0005070396
    7      H       2.6803978057    -2.1201859378     0.0010792188
    8      C      -2.3824177811    -0.5244633738    -0.0001682759
    9      C      -2.6817315780     0.8273312149     0.0010471198
   10      C      -1.6726421175     1.7759152657     0.0004904235
   11      C      -0.3163469004     1.3862234269    -0.0005293069
   12      C       0.7367752863     2.3252776938    -0.0005747718
   13      C       2.0576065541     1.9084870347     0.0003141988
   14      C       2.3743006152     0.5606173675     0.0003067751
   15      H       0.8642366403    -3.7915666760     0.0017549180
   16      H      -1.4954579885    -3.0731591179    -0.0014156115
   17      H      -3.1763935341    -1.2613339838    -0.0004689351
   18      H      -3.7163564276     1.1467917750     0.0019081870
   19      H      -1.9134249087     2.8315998155     0.0005558156
   20      H       3.4093648619     0.2407464211     0.0016850583
   21      H       0.4965831230     3.3810858808    -0.0007420755
   22      H       2.8512275382     2.6449957256     0.0003349189
 ----------------------------------------------------------------
 Molecular Point Group                 C1    NOp =  1
 Largest Abelian Subgroup              C1    NOp =  1
 Nuclear Repulsion Energy =         700.08505759 hartrees
 There are       44 alpha and       43 beta electrons
 Requested basis set is cc-pVDZ
 There are 105 shells and 227 basis functions

 Total QAlloc Memory Limit   2000 MB
 Mega-Array Size       188 MB
 MEM_STATIC part       192 MB

 A cutoff of  1.0D-12 yielded   5010 shell pairs
 There are     23974 function pairs (     26916 Cartesian)
 Smallest overlap matrix eigenvalue = 1.32E-04

 Scale SEOQF with 1.000000e-01/1.000000e-01/1.000000e+00

 Standard Electronic Orientation quadrupole field applied
 Nucleus-field energy     =     0.0000000272 hartrees
 Guess from superposition of atomic densities
 Warning:  Energy on first SCF cycle will be non-variational
 SAD guess density has 87.000000 electrons

 -----------------------------------------------------------------------
  General SCF calculation program by
  Eric Jon Sundstrom, Paul Horn, Yuezhi Mao, Dmitri Zuev, Alec White,
  David Stuck, Shaama M.S., Shane Yost, Joonho Lee, David Small,
  Daniel Levine, Susi Lehtola, Hugh Burton, Evgeny Epifanovsky,
  Bang C. Huynh
 -----------------------------------------------------------------------
 Exchange:     0.5000 Hartree-Fock + 0.0800 Slater + 0.4200 B88
 Correlation:  0.1900 VWN5 + 0.8100 LYP
 Using SG-1 standard quadrature grid
 A unrestricted SCF calculation will be
 performed using DIIS
 SCF converges when DIIS error is below 1.0e-08
 ---------------------------------------
  Cycle       Energy         DIIS error
 ---------------------------------------
    1    -505.0123231091      2.79e-02  
    2    -500.3810296182      1.68e-03  
    3    -500.4495897506      1.01e-03  
    4    -500.4801618394      1.99e-04  
    5    -500.4822565737      1.35e-04  
    6    -500.4832115543      6.46e-05  
    7    -500.4840749417      4.26e-05  
    8    -500.4845906750      2.07e-05  
    9    -500.4846539080      6.56e-06  
   10    -500.4846605507      3.15e-06  
   11    -500.4846614410      9.46e-07  
   12    -500.4846615222      1.61e-07  
   13    -500.4846615243      1.09e-07  
   14    -500.4846615248      5.37e-08  
   15    -500.4846615250      8.68e-09  Convergence criterion met
 ---------------------------------------
 SCF time:   CPU 106.00s  wall 109.00s 
<S^2> =          0.929848561
 SCF   energy in the final basis set =     -500.4846615250
 Total energy in the final basis set =     -500.4846615250
 

 CIS/TDDFT memory preview:
 --------------------------
	NOV = NOa*NVa + NOb*NVb = 15964
	NRoots = 50, max iter = 200, max vectors = 10000
	Size of each subspace vector: 0.12 Mb
	Davidson algorithm may add up to 2 x NOV x NRoots (= 12.2 Mb) per iteration
	Max memory = 2435.9 Mb (worst case scenario)
	Currently available memory = 2000.0 Mb

	In case of problems:
	(a) increase memory (MEM_TOTAL = 2436 can hold 10000 subspace vectors), or
	(b) request fewer states (CIS_N_ROOTS = 41 will fit in current MEM_TOTAL), or
	(c) reduce MAX_CIS_SUBSPACE (= 8210 will fit in current MEM_TOTAL).
	Reducing MAX_CIS_SUBSPACE may hamper convergence.

 Direct TDDFT/TDA calculation will be performed
 Exchange:     0.5000 Hartree-Fock + 0.0800 Slater + 0.4200 B88
 Correlation:  0.1900 VWN5 + 0.8100 LYP
 Using SG-1 standard quadrature grid
 CIS energy converged when residual is below 10e- 6
 ---------------------------------------------------
 Iter    Rts Conv    Rts Left    Ttl Dev     Max Dev
 ---------------------------------------------------
   1         0          50      0.024632    0.001653
   2         0          50      0.008859    0.000902
   3         0          50      0.002620    0.000456
   4         0          50      0.001467    0.000583
   5        18          32      0.001793    0.000482
   6        35          15      0.000765    0.000158
   7        38          12      0.000431    0.000090
   8        39          11      0.000270    0.000051
   9        42           8      0.000103    0.000019
  10        44           6      0.000037    0.000005
  11        46           4      0.000020    0.000001
  12        50           0      0.000016    0.000001    Roots Converged
 ---------------------------------------------------
 
 ---------------------------------------------------
         TDDFT/TDA Excitation Energies              
 ---------------------------------------------------

 Excited state   1: excitation energy (eV) =    3.3886
 Total energy for state  1:                  -500.36013221 au
    <S**2>     :  0.9294
    Trans. Mom.: -0.1021 X   0.0372 Y   0.0000 Z
    Strength   :     0.0009807816
    S(    1) --> V(    2) amplitude =  0.6642 alpha
    D(   42) --> S(    1) amplitude = -0.2962 beta
    D(   43) --> S(    1) amplitude = -0.6566 beta

 Excited state   2: excitation energy (eV) =    3.3893
 Total energy for state  2:                  -500.36010525 au
    <S**2>     :  0.9297
    Trans. Mom.: -0.0370 X  -0.1026 Y   0.0000 Z
    Strength   :     0.0009880087
    S(    1) --> V(    3) amplitude =  0.6627 alpha
    D(   42) --> S(    1) amplitude = -0.6566 beta
    D(   43) --> S(    1) amplitude =  0.2964 beta

 Excited state   3: excitation energy (eV) =    3.6380
 Total energy for state  3:                  -500.35096706 au
    <S**2>     :  0.9411
    Trans. Mom.:  0.0006 X   0.0007 Y  -0.0000 Z
    Strength   :     0.0000000828
    S(    1) --> V(    1) amplitude =  0.8131 alpha
    D(   41) --> S(    1) amplitude =  0.5398 beta

 Excited state   4: excitation energy (eV) =    3.9171
 Total energy for state  4:                  -500.34071081 au
    <S**2>     :  0.9921
    Trans. Mom.: -0.0008 X  -0.0015 Y   0.0001 Z
    Strength   :     0.0000002776
    S(    1) --> V(    1) amplitude = -0.5346 alpha
    D(   41) --> S(    1) amplitude =  0.8094 beta

 Excited state   5: excitation energy (eV) =    4.4979
 Total energy for state  5:                  -500.31936606 au
    <S**2>     :  0.9937
    Trans. Mom.:  0.8785 X  -1.2851 Y   0.0003 Z
    Strength   :     0.2670238778
    D(   43) --> V(    3) amplitude =  0.1648 alpha
    S(    1) --> V(    2) amplitude =  0.5343 alpha
    S(    1) --> V(    3) amplitude = -0.4300 alpha
    D(   42) --> V(    1) amplitude =  0.2478 beta
    D(   43) --> S(    1) amplitude =  0.6132 beta

 Excited state   6: excitation energy (eV) =    4.4982
 Total energy for state  6:                  -500.31935724 au
    <S**2>     :  0.9938
    Trans. Mom.:  1.2859 X   0.8773 Y  -0.0002 Z
    Strength   :     0.2670243630
    D(   43) --> V(    2) amplitude = -0.1656 alpha
    S(    1) --> V(    2) amplitude =  0.4296 alpha
    S(    1) --> V(    3) amplitude =  0.5327 alpha
    D(   42) --> S(    1) amplitude =  0.6132 beta
    D(   43) --> V(    1) amplitude = -0.2480 beta

 Excited state   7: excitation energy (eV) =    4.6618
 Total energy for state  7:                  -500.31334257 au
    <S**2>     :  2.8175
    Trans. Mom.: -0.0001 X   0.0013 Y  -0.0000 Z
    Strength   :     0.0000002021
    D(   41) --> V(    2) amplitude = -0.2254 alpha
    D(   42) --> V(    3) amplitude = -0.2260 alpha
    D(   43) --> V(    1) amplitude =  0.5573 alpha
    D(   41) --> V(    1) amplitude =  0.5627 beta
    D(   42) --> V(    3) amplitude = -0.2823 beta
    D(   43) --> V(    2) amplitude = -0.2822 beta

 Excited state   8: excitation energy (eV) =    5.0453
 Total energy for state  8:                  -500.29925129 au
    <S**2>     :  2.3880
    Trans. Mom.: -0.0069 X  -0.0629 Y  -0.0000 Z
    Strength   :     0.0004949976
    D(   41) --> V(    1) amplitude = -0.2983 alpha
    D(   41) --> V(    2) amplitude =  0.1548 alpha
    D(   41) --> V(    3) amplitude =  0.1672 alpha
    D(   42) --> V(    3) amplitude = -0.1522 alpha
    D(   43) --> V(    2) amplitude =  0.4111 alpha
    S(    1) --> V(    9) amplitude = -0.2672 alpha
    D(   40) --> S(    1) amplitude = -0.3569 beta
    D(   41) --> V(    2) amplitude =  0.2772 beta
    D(   41) --> V(    3) amplitude =  0.1596 beta
    D(   42) --> V(    1) amplitude = -0.2741 beta
    D(   42) --> V(    2) amplitude =  0.1758 beta
    D(   43) --> V(    1) amplitude = -0.3477 beta
    D(   43) --> V(    3) amplitude =  0.1782 beta

 Excited state   9: excitation energy (eV) =    5.0455
 Total energy for state  9:                  -500.29924444 au
    <S**2>     :  2.3885
    Trans. Mom.:  0.0638 X  -0.0067 Y   0.0000 Z
    Strength   :     0.0005080658
    D(   41) --> V(    2) amplitude =  0.1518 alpha
    D(   42) --> V(    1) amplitude = -0.3254 alpha
    D(   43) --> V(    3) amplitude =  0.4112 alpha
    S(    1) --> V(   10) amplitude =  0.2670 alpha
    D(   39) --> S(    1) amplitude =  0.3567 beta
    D(   41) --> V(    2) amplitude = -0.1584 beta
    D(   41) --> V(    3) amplitude =  0.2748 beta
    D(   42) --> V(    1) amplitude = -0.3483 beta
    D(   42) --> V(    3) amplitude = -0.1777 beta
    D(   43) --> V(    1) amplitude =  0.2746 beta
    D(   43) --> V(    2) amplitude =  0.1788 beta

 Excited state  10: excitation energy (eV) =    5.6469
 Total energy for state 10:                  -500.27714126 au
    <S**2>     :  2.1922
    Trans. Mom.: -0.0334 X  -0.1388 Y   0.0000 Z
    Strength   :     0.0028183866
    D(   41) --> V(    2) amplitude = -0.1760 alpha
    D(   41) --> V(    3) amplitude = -0.2311 alpha
    D(   42) --> V(    2) amplitude = -0.2386 alpha
    D(   42) --> V(    3) amplitude =  0.1776 alpha
    D(   43) --> V(    2) amplitude =  0.4030 alpha
    S(    1) --> V(    9) amplitude =  0.2165 alpha
    D(   40) --> S(    1) amplitude =  0.3442 beta
    D(   42) --> V(    1) amplitude = -0.2363 beta
    D(   42) --> V(    2) amplitude = -0.2296 beta
    D(   42) --> V(    3) amplitude = -0.2050 beta
    D(   43) --> V(    1) amplitude = -0.3966 beta
    D(   43) --> V(    2) amplitude =  0.2077 beta
    D(   43) --> V(    3) amplitude = -0.2296 beta

 Excited state  11: excitation energy (eV) =    5.6483
 Total energy for state 11:                  -500.27708996 au
    <S**2>     :  2.1918
    Trans. Mom.:  0.1392 X  -0.0332 Y  -0.0001 Z
    Strength   :     0.0028356694
    D(   41) --> V(    2) amplitude = -0.2347 alpha
    D(   41) --> V(    3) amplitude =  0.1828 alpha
    D(   42) --> V(    2) amplitude =  0.1804 alpha
    D(   42) --> V(    3) amplitude =  0.2424 alpha
    D(   43) --> V(    3) amplitude =  0.4014 alpha
    S(    1) --> V(   10) amplitude = -0.2164 alpha
    D(   39) --> S(    1) amplitude = -0.3440 beta
    D(   42) --> V(    1) amplitude = -0.3961 beta
    D(   42) --> V(    2) amplitude = -0.2062 beta
    D(   42) --> V(    3) amplitude =  0.2315 beta
    D(   43) --> V(    1) amplitude =  0.2361 beta
    D(   43) --> V(    2) amplitude = -0.2282 beta
    D(   43) --> V(    3) amplitude = -0.2069 beta

 Excited state  12: excitation energy (eV) =    5.8683
 Total energy for state 12:                  -500.26900439 au
    <S**2>     :  2.7859
    Trans. Mom.: -0.0010 X   0.0010 Y   0.0001 Z
    Strength   :     0.0000002887
    D(   41) --> V(    2) amplitude =  0.3021 alpha
    D(   41) --> V(    3) amplitude =  0.1930 alpha
    D(   42) --> V(    2) amplitude = -0.1936 alpha
    D(   42) --> V(    3) amplitude =  0.3001 alpha
    D(   43) --> V(    1) amplitude =  0.4084 alpha
    D(   41) --> V(    1) amplitude =  0.3698 beta
    D(   42) --> V(    3) amplitude =  0.4148 beta
    D(   43) --> V(    2) amplitude =  0.4149 beta

 Excited state  13: excitation energy (eV) =    6.0863
 Total energy for state 13:                  -500.26099481 au
    <S**2>     :  0.9862
    Trans. Mom.: -0.0002 X   0.0019 Y   0.0000 Z
    Strength   :     0.0000005206
    S(    1) --> V(    4) amplitude =  0.9702 alpha

 Excited state  14: excitation energy (eV) =    6.2046
 Total energy for state 14:                  -500.25664689 au
    <S**2>     :  2.5519
    Trans. Mom.:  0.9375 X   0.2098 Y  -0.0001 Z
    Strength   :     0.1402853512
    D(   42) --> V(    1) amplitude = -0.3198 alpha
    D(   43) --> V(    2) amplitude =  0.2451 alpha
    D(   43) --> V(    3) amplitude = -0.4329 alpha
    S(    1) --> V(    2) amplitude =  0.1562 alpha
    D(   41) --> V(    2) amplitude =  0.3548 beta
    D(   41) --> V(    3) amplitude = -0.3147 beta
    D(   42) --> V(    1) amplitude = -0.2846 beta
    D(   43) --> V(    1) amplitude =  0.4342 beta

 Excited state  15: excitation energy (eV) =    6.2052
 Total energy for state 15:                  -500.25662352 au
    <S**2>     :  2.5513
    Trans. Mom.: -0.2093 X   0.9379 Y  -0.0000 Z
    Strength   :     0.1403963315
    D(   41) --> V(    1) amplitude =  0.3135 alpha
    D(   43) --> V(    2) amplitude =  0.4331 alpha
    D(   43) --> V(    3) amplitude =  0.2439 alpha
    S(    1) --> V(    3) amplitude =  0.1561 alpha
    D(   41) --> V(    2) amplitude =  0.3141 beta
    D(   41) --> V(    3) amplitude =  0.3547 beta
    D(   42) --> V(    1) amplitude =  0.4344 beta
    D(   43) --> V(    1) amplitude =  0.2848 beta

 Excited state  16: excitation energy (eV) =    6.2480
 Total energy for state 16:                  -500.25505296 au
    <S**2>     :  0.9872
    Trans. Mom.:  0.0011 X   0.0010 Y  -0.0000 Z
    Strength   :     0.0000003615
    D(   38) --> S(    1) amplitude =  0.9719 beta

 Excited state  17: excitation energy (eV) =    6.2530
 Total energy for state 17:                  -500.25486827 au
    <S**2>     :  0.9873
    Trans. Mom.:  0.0069 X  -0.0020 Y   0.0001 Z
    Strength   :     0.0000078890
    D(   37) --> S(    1) amplitude =  0.9718 beta

 Excited state  18: excitation energy (eV) =    6.4469
 Total energy for state 18:                  -500.24774256 au
    <S**2>     :  2.3860
    Trans. Mom.:  0.0052 X   0.0058 Y   0.0000 Z
    Strength   :     0.0000094997
    D(   41) --> V(    3) amplitude = -0.2055 alpha
    D(   42) --> V(    2) amplitude =  0.2149 alpha
    D(   41) --> S(    1) amplitude =  0.1848 beta
    D(   42) --> V(    2) amplitude =  0.6349 beta
    D(   43) --> V(    3) amplitude = -0.6319 beta

 Excited state  19: excitation energy (eV) =    6.4587
 Total energy for state 19:                  -500.24730791 au
    <S**2>     :  1.4211
    Trans. Mom.: -0.0350 X  -0.0465 Y   0.0000 Z
    Strength   :     0.0005363074
    D(   41) --> V(    1) amplitude = -0.3577 alpha
    D(   41) --> V(    3) amplitude = -0.1624 alpha
    D(   42) --> V(    1) amplitude =  0.4704 alpha
    D(   42) --> V(    2) amplitude = -0.1784 alpha
    D(   43) --> V(    2) amplitude = -0.3649 alpha
    D(   41) --> V(    2) amplitude =  0.3986 beta
    D(   42) --> V(    3) amplitude = -0.1829 beta
    D(   43) --> V(    1) amplitude =  0.2511 beta
    D(   43) --> V(    2) amplitude =  0.1786 beta

 Excited state  20: excitation energy (eV) =    6.4590
 Total energy for state 20:                  -500.24729588 au
    <S**2>     :  1.4204
    Trans. Mom.: -0.0459 X   0.0359 Y  -0.0001 Z
    Strength   :     0.0005375732
    D(   41) --> V(    1) amplitude =  0.4745 alpha
    D(   41) --> V(    2) amplitude =  0.1628 alpha
    D(   42) --> V(    1) amplitude =  0.3332 alpha
    D(   42) --> V(    3) amplitude = -0.1957 alpha
    D(   43) --> V(    3) amplitude =  0.3645 alpha
    D(   41) --> V(    3) amplitude = -0.3999 beta
    D(   42) --> V(    1) amplitude = -0.2513 beta
    D(   42) --> V(    2) amplitude =  0.1826 beta
    D(   43) --> V(    3) amplitude =  0.1786 beta

 Excited state  21: excitation energy (eV) =    6.6068
 Total energy for state 21:                  -500.24186635 au
    <S**2>     :  0.8997
    Trans. Mom.:  0.0044 X  -0.0029 Y  -0.0000 Z
    Strength   :     0.0000045815
    D(   41) --> V(    2) amplitude =  0.2906 alpha
    D(   41) --> V(    3) amplitude =  0.1824 alpha
    D(   42) --> V(    2) amplitude = -0.1834 alpha
    D(   42) --> V(    3) amplitude =  0.2908 alpha
    D(   43) --> V(    1) amplitude = -0.5129 alpha
    D(   41) --> V(    1) amplitude =  0.5459 beta
    D(   42) --> V(    3) amplitude = -0.2858 beta
    D(   43) --> V(    2) amplitude = -0.2862 beta

 Excited state  22: excitation energy (eV) =    6.6166
 Total energy for state 22:                  -500.24150645 au
    <S**2>     :  1.1875
    Trans. Mom.:  0.0008 X   0.0013 Y   0.0000 Z
    Strength   :     0.0000003786
    D(   41) --> V(    2) amplitude =  0.3461 alpha
    D(   41) --> V(    3) amplitude = -0.5387 alpha
    D(   42) --> V(    2) amplitude =  0.5424 alpha
    D(   42) --> V(    3) amplitude =  0.3441 alpha
    D(   42) --> V(    2) amplitude = -0.2500 beta
    D(   43) --> V(    3) amplitude =  0.2515 beta

 Excited state  23: excitation energy (eV) =    6.6459
 Total energy for state 23:                  -500.24043075 au
    <S**2>     :  1.0175
    Trans. Mom.: -0.0002 X   0.0004 Y   0.0000 Z
    Strength   :     0.0000000347
    D(   41) --> V(    4) amplitude = -0.2183 alpha
    S(    1) --> V(    5) amplitude =  0.9471 alpha

 Excited state  24: excitation energy (eV) =    6.6470
 Total energy for state 24:                  -500.24038867 au
    <S**2>     :  1.0175
    Trans. Mom.: -0.0007 X  -0.0002 Y  -0.0000 Z
    Strength   :     0.0000000928
    D(   42) --> V(    4) amplitude = -0.2183 alpha
    S(    1) --> V(    6) amplitude =  0.9470 alpha

 Excited state  25: excitation energy (eV) =    6.8773
 Total energy for state 25:                  -500.23192548 au
    <S**2>     :  1.5349
    Trans. Mom.:  0.1358 X  -0.1075 Y  -0.0001 Z
    Strength   :     0.0050544841
    D(   41) --> V(    1) amplitude =  0.1671 alpha
    D(   39) --> S(    1) amplitude =  0.5720 beta
    D(   40) --> S(    1) amplitude = -0.4014 beta
    D(   41) --> V(    3) amplitude = -0.3142 beta
    D(   42) --> V(    2) amplitude = -0.2656 beta
    D(   43) --> V(    3) amplitude = -0.2657 beta

 Excited state  26: excitation energy (eV) =    6.8774
 Total energy for state 26:                  -500.23192269 au
    <S**2>     :  1.5349
    Trans. Mom.:  0.1070 X   0.1368 Y   0.0000 Z
    Strength   :     0.0050793358
    D(   41) --> V(    3) amplitude =  0.1534 alpha
    D(   42) --> V(    1) amplitude =  0.1708 alpha
    D(   39) --> S(    1) amplitude =  0.4016 beta
    D(   40) --> S(    1) amplitude =  0.5719 beta
    D(   41) --> V(    2) amplitude =  0.3160 beta
    D(   42) --> V(    3) amplitude =  0.2656 beta
    D(   43) --> V(    2) amplitude = -0.2655 beta

 Excited state  27: excitation energy (eV) =    7.3178
 Total energy for state 27:                  -500.21573595 au
    <S**2>     :  1.0361
    Trans. Mom.: -0.0002 X  -0.0001 Y   0.0002 Z
    Strength   :     0.0000000166
    S(    1) --> V(    7) amplitude =  0.9371 alpha

 Excited state  28: excitation energy (eV) =    7.3187
 Total energy for state 28:                  -500.21570515 au
    <S**2>     :  1.0361
    Trans. Mom.: -0.0011 X  -0.0002 Y   0.0000 Z
    Strength   :     0.0000002303
    S(    1) --> V(    8) amplitude =  0.9370 alpha

 Excited state  29: excitation energy (eV) =    7.3447
 Total energy for state 29:                  -500.21474709 au
    <S**2>     :  0.8916
    Trans. Mom.:  0.0053 X  -0.0039 Y  -0.0016 Z
    Strength   :     0.0000083506
    D(   41) --> V(    2) amplitude =  0.3321 alpha
    D(   41) --> V(    3) amplitude =  0.2108 alpha
    D(   42) --> V(    2) amplitude = -0.2140 alpha
    D(   42) --> V(    3) amplitude =  0.3297 alpha
    D(   43) --> V(    1) amplitude =  0.4474 alpha
    D(   41) --> V(    1) amplitude = -0.4354 beta
    D(   42) --> V(    3) amplitude = -0.3597 beta
    D(   43) --> V(    2) amplitude = -0.3619 beta

 Excited state  30: excitation energy (eV) =    7.3563
 Total energy for state 30:                  -500.21432100 au
    <S**2>     :  1.1690
    Trans. Mom.: -0.0001 X   0.0008 Y   0.1164 Z
    Strength   :     0.0024439127
    D(   36) --> S(    1) amplitude =  0.9043 beta
    D(   37) --> V(    2) amplitude = -0.1830 beta
    D(   38) --> V(    3) amplitude = -0.1855 beta

 Excited state  31: excitation energy (eV) =    7.4848
 Total energy for state 31:                  -500.20960010 au
    <S**2>     :  0.9278
    Trans. Mom.:  0.5371 X  -0.1132 Y  -0.0003 Z
    Strength   :     0.0552548751
    D(   41) --> V(    2) amplitude =  0.3977 alpha
    D(   41) --> V(    3) amplitude = -0.3140 alpha
    D(   42) --> V(    2) amplitude = -0.3133 alpha
    D(   42) --> V(    3) amplitude = -0.3889 alpha
    S(    1) --> V(   10) amplitude = -0.2244 alpha
    D(   42) --> V(    2) amplitude = -0.2692 beta
    D(   42) --> V(    3) amplitude =  0.3175 beta
    D(   43) --> V(    2) amplitude = -0.3158 beta
    D(   43) --> V(    3) amplitude = -0.2692 beta

 Excited state  32: excitation energy (eV) =    7.4853
 Total energy for state 32:                  -500.20958174 au
    <S**2>     :  0.9271
    Trans. Mom.: -0.1148 X  -0.5695 Y   0.0004 Z
    Strength   :     0.0619003707
    D(   41) --> V(    2) amplitude =  0.3208 alpha
    D(   41) --> V(    3) amplitude =  0.4033 alpha
    D(   42) --> V(    2) amplitude =  0.3953 alpha
    D(   42) --> V(    3) amplitude = -0.3214 alpha
    S(    1) --> V(    9) amplitude =  0.2187 alpha
    D(   42) --> V(    2) amplitude = -0.3182 beta
    D(   42) --> V(    3) amplitude = -0.2705 beta
    D(   43) --> V(    2) amplitude =  0.2699 beta
    D(   43) --> V(    3) amplitude = -0.3183 beta

 Excited state  33: excitation energy (eV) =    7.5382
 Total energy for state 33:                  -500.20763793 au
    <S**2>     :  1.1559
    Trans. Mom.:  0.1827 X   1.8393 Y  -0.0000 Z
    Strength   :     0.6309281408
    D(   41) --> V(    1) amplitude = -0.3640 alpha
    D(   43) --> V(    2) amplitude =  0.1714 alpha
    S(    1) --> V(    9) amplitude =  0.5938 alpha
    D(   40) --> S(    1) amplitude = -0.2790 beta
    D(   41) --> V(    2) amplitude = -0.3829 beta
    D(   41) --> V(    3) amplitude = -0.2224 beta

 Excited state  34: excitation energy (eV) =    7.5393
 Total energy for state 34:                  -500.20759754 au
    <S**2>     :  1.1542
    Trans. Mom.:  1.8514 X  -0.1815 Y  -0.0004 Z
    Strength   :     0.6392290857
    D(   42) --> V(    1) amplitude =  0.3570 alpha
    D(   43) --> V(    3) amplitude = -0.1710 alpha
    S(    1) --> V(   10) amplitude =  0.5903 alpha
    D(   39) --> S(    1) amplitude = -0.2786 beta
    D(   41) --> V(    2) amplitude = -0.2239 beta
    D(   41) --> V(    3) amplitude =  0.3849 beta

 Excited state  35: excitation energy (eV) =    7.6165
 Total energy for state 35:                  -500.20476039 au
    <S**2>     :  2.0713
    Trans. Mom.:  0.0007 X   0.0020 Y   0.0001 Z
    Strength   :     0.0000008724
    D(   37) --> V(    3) amplitude = -0.2638 alpha
    D(   38) --> V(    2) amplitude =  0.2631 alpha
    D(   41) --> V(    9) amplitude =  0.2248 alpha
    D(   42) --> V(   10) amplitude = -0.2255 alpha
    S(    1) --> V(   16) amplitude = -0.1785 alpha
    D(   33) --> S(    1) amplitude = -0.5631 beta
    D(   39) --> V(    2) amplitude = -0.1861 beta
    D(   39) --> V(    3) amplitude =  0.2884 beta
    D(   40) --> V(    2) amplitude = -0.2877 beta
    D(   40) --> V(    3) amplitude = -0.1856 beta
    D(   42) --> V(   10) amplitude = -0.1737 beta
    D(   43) --> V(   11) amplitude = -0.1741 beta

 Excited state  36: excitation energy (eV) =    7.7010
 Total energy for state 36:                  -500.20165617 au
    <S**2>     :  1.4234
    Trans. Mom.:  0.0125 X  -0.0108 Y   0.0006 Z
    Strength   :     0.0000513522
    D(   35) --> S(    1) amplitude =  0.8140 beta
    D(   37) --> V(    2) amplitude = -0.3072 beta
    D(   38) --> V(    1) amplitude = -0.1606 beta
    D(   38) --> V(    3) amplitude =  0.3078 beta

 Excited state  37: excitation energy (eV) =    7.7027
 Total energy for state 37:                  -500.20159270 au
    <S**2>     :  1.4250
    Trans. Mom.: -0.0111 X   0.0021 Y  -0.0004 Z
    Strength   :     0.0000242044
    D(   34) --> S(    1) amplitude =  0.8136 beta
    D(   37) --> V(    1) amplitude =  0.1622 beta
    D(   37) --> V(    3) amplitude =  0.3056 beta
    D(   38) --> V(    2) amplitude =  0.3092 beta

 Excited state  38: excitation energy (eV) =    7.7529
 Total energy for state 38:                  -500.19974659 au
    <S**2>     :  1.1905
    Trans. Mom.: -2.2739 X  -0.5708 Y  -0.0003 Z
    Strength   :     1.0440128050
    D(   42) --> V(    1) amplitude = -0.3842 alpha
    D(   43) --> V(    2) amplitude = -0.1939 alpha
    D(   43) --> V(    3) amplitude =  0.3230 alpha
    S(    1) --> V(   10) amplitude =  0.4382 alpha
    D(   39) --> S(    1) amplitude = -0.2370 beta
    D(   40) --> V(    1) amplitude =  0.2854 beta
    D(   41) --> V(    2) amplitude =  0.2270 beta
    D(   41) --> V(    3) amplitude = -0.1904 beta
    D(   42) --> V(    1) amplitude =  0.1604 beta
    D(   43) --> V(    1) amplitude = -0.2589 beta

 Excited state  39: excitation energy (eV) =    7.7532
 Total energy for state 39:                  -500.19973642 au
    <S**2>     :  1.1923
    Trans. Mom.:  0.5718 X  -2.2764 Y  -0.0003 Z
    Strength   :     1.0464545303
    D(   41) --> V(    1) amplitude =  0.3940 alpha
    D(   43) --> V(    2) amplitude = -0.3238 alpha
    D(   43) --> V(    3) amplitude = -0.1929 alpha
    S(    1) --> V(    9) amplitude =  0.4353 alpha
    D(   39) --> V(    1) amplitude = -0.2873 beta
    D(   40) --> S(    1) amplitude = -0.2362 beta
    D(   41) --> V(    2) amplitude =  0.1908 beta
    D(   41) --> V(    3) amplitude =  0.2275 beta
    D(   42) --> V(    1) amplitude = -0.2591 beta
    D(   43) --> V(    1) amplitude = -0.1602 beta

 Excited state  40: excitation energy (eV) =    7.8689
 Total energy for state 40:                  -500.19548510 au
    <S**2>     :  2.8186
    Trans. Mom.: -0.0108 X   0.0084 Y  -0.0000 Z
    Strength   :     0.0000362421
    D(   33) --> V(    1) amplitude = -0.2489 alpha
    D(   37) --> V(    2) amplitude =  0.3528 alpha
    D(   37) --> V(    3) amplitude =  0.1575 alpha
    D(   38) --> V(    2) amplitude = -0.1600 alpha
    D(   38) --> V(    3) amplitude =  0.3458 alpha
    D(   41) --> V(   10) amplitude =  0.2234 alpha
    D(   42) --> V(    9) amplitude =  0.2201 alpha
    D(   33) --> V(    1) amplitude = -0.2426 beta
    D(   39) --> V(    2) amplitude = -0.2790 beta
    D(   39) --> V(    3) amplitude = -0.1794 beta
    D(   40) --> V(    2) amplitude =  0.1779 beta
    D(   40) --> V(    3) amplitude = -0.2745 beta
    D(   42) --> V(   10) amplitude = -0.1619 beta
    D(   42) --> V(   11) amplitude = -0.2394 beta
    D(   43) --> V(   10) amplitude =  0.2387 beta
    D(   43) --> V(   11) amplitude = -0.1650 beta

 Excited state  41: excitation energy (eV) =    7.9012
 Total energy for state 41:                  -500.19429811 au
    <S**2>     :  2.3421
    Trans. Mom.: -0.0822 X  -0.5154 Y  -0.0001 Z
    Strength   :     0.0527194805
    D(   37) --> V(    1) amplitude = -0.3775 alpha
    D(   38) --> V(    2) amplitude = -0.1754 alpha
    D(   43) --> V(   10) amplitude =  0.2954 alpha
    S(    1) --> V(    9) amplitude =  0.3792 alpha
    D(   39) --> V(    1) amplitude =  0.3896 beta
    D(   39) --> V(    3) amplitude =  0.1627 beta
    D(   40) --> V(    2) amplitude =  0.1666 beta
    D(   41) --> V(    2) amplitude =  0.2644 beta
    D(   41) --> V(   11) amplitude = -0.1821 beta

 Excited state  42: excitation energy (eV) =    7.9023
 Total energy for state 42:                  -500.19425637 au
    <S**2>     :  2.3466
    Trans. Mom.: -0.5070 X   0.0813 Y  -0.0002 Z
    Strength   :     0.0510369192
    D(   37) --> V(    2) amplitude =  0.1627 alpha
    D(   38) --> V(    1) amplitude =  0.3491 alpha
    D(   38) --> V(    3) amplitude = -0.1996 alpha
    D(   43) --> V(    9) amplitude = -0.2949 alpha
    S(    1) --> V(   10) amplitude =  0.3776 alpha
    D(   39) --> V(    2) amplitude = -0.1610 beta
    D(   40) --> V(    1) amplitude = -0.3898 beta
    D(   40) --> V(    3) amplitude =  0.1709 beta
    D(   41) --> V(    3) amplitude = -0.2633 beta
    D(   41) --> V(   10) amplitude =  0.1838 beta

 Excited state  43: excitation energy (eV) =    8.0358
 Total energy for state 43:                  -500.18935011 au
    <S**2>     :  1.0884
    Trans. Mom.:  0.0021 X   0.0005 Y  -0.0001 Z
    Strength   :     0.0000009239
    S(    1) --> V(   11) amplitude =  0.8760 alpha
    D(   32) --> S(    1) amplitude = -0.2927 beta
    D(   37) --> V(    3) amplitude =  0.1720 beta
    D(   38) --> V(    2) amplitude = -0.1711 beta

 Excited state  44: excitation energy (eV) =    8.0927
 Total energy for state 44:                  -500.18725886 au
    <S**2>     :  2.5690
    Trans. Mom.: -0.0007 X  -0.0001 Y   0.0003 Z
    Strength   :     0.0000001120
    D(   40) --> V(    1) amplitude =  0.5656 alpha
    D(   40) --> V(    3) amplitude = -0.1703 alpha
    D(   35) --> S(    1) amplitude = -0.2059 beta
    D(   38) --> V(    1) amplitude = -0.5864 beta
    D(   41) --> V(    5) amplitude = -0.1617 beta
    D(   42) --> V(    4) amplitude =  0.2500 beta
    D(   43) --> V(    4) amplitude = -0.1919 beta

 Excited state  45: excitation energy (eV) =    8.0956
 Total energy for state 45:                  -500.18715239 au
    <S**2>     :  2.5510
    Trans. Mom.: -0.0004 X  -0.0011 Y  -0.0000 Z
    Strength   :     0.0000002822
    D(   39) --> V(    1) amplitude = -0.5807 alpha
    D(   34) --> S(    1) amplitude = -0.2052 beta
    D(   37) --> V(    1) amplitude =  0.5759 beta
    D(   41) --> V(    6) amplitude = -0.1690 beta
    D(   42) --> V(    4) amplitude = -0.2005 beta
    D(   43) --> V(    4) amplitude = -0.2661 beta

 Excited state  46: excitation energy (eV) =    8.1176
 Total energy for state 46:                  -500.18634357 au
    <S**2>     :  2.3914
    Trans. Mom.:  0.0012 X  -0.0005 Y  -0.0193 Z
    Strength   :     0.0000745957
    D(   43) --> V(    4) amplitude = -0.3431 alpha
    S(    1) --> V(   12) amplitude =  0.3471 alpha
    D(   41) --> V(    4) amplitude =  0.6358 beta
    D(   42) --> V(    5) amplitude = -0.1645 beta
    D(   42) --> V(    6) amplitude =  0.2491 beta
    D(   43) --> V(    5) amplitude =  0.2494 beta
    D(   43) --> V(    6) amplitude =  0.1666 beta

 Excited state  47: excitation energy (eV) =    8.1228
 Total energy for state 47:                  -500.18615263 au
    <S**2>     :  1.8793
    Trans. Mom.:  0.0000 X  -0.0011 Y   0.0003 Z
    Strength   :     0.0000002441
    D(   39) --> V(    3) amplitude = -0.2438 alpha
    D(   40) --> V(    2) amplitude =  0.2551 alpha
    S(    1) --> V(   11) amplitude = -0.3944 alpha
    D(   32) --> S(    1) amplitude = -0.5492 beta
    D(   37) --> V(    2) amplitude = -0.2068 beta
    D(   37) --> V(    3) amplitude =  0.3582 beta
    D(   38) --> V(    2) amplitude = -0.3549 beta
    D(   38) --> V(    3) amplitude = -0.2040 beta

 Excited state  48: excitation energy (eV) =    8.1537
 Total energy for state 48:                  -500.18501948 au
    <S**2>     :  2.1016
    Trans. Mom.:  0.0013 X  -0.0012 Y  -0.0008 Z
    Strength   :     0.0000007858
    D(   40) --> V(    1) amplitude =  0.1909 alpha
    D(   38) --> V(    1) amplitude = -0.3001 beta
    D(   41) --> V(    5) amplitude =  0.3715 beta
    D(   42) --> V(    4) amplitude = -0.4433 beta
    D(   43) --> V(    4) amplitude =  0.6250 beta

 Excited state  49: excitation energy (eV) =    8.1543
 Total energy for state 49:                  -500.18499534 au
    <S**2>     :  2.1099
    Trans. Mom.: -0.0011 X   0.0010 Y   0.0006 Z
    Strength   :     0.0000004976
    D(   39) --> V(    1) amplitude = -0.2083 alpha
    D(   37) --> V(    1) amplitude =  0.3106 beta
    D(   41) --> V(    6) amplitude =  0.3673 beta
    D(   42) --> V(    4) amplitude =  0.6237 beta
    D(   43) --> V(    4) amplitude =  0.4357 beta

 Excited state  50: excitation energy (eV) =    8.2459
 Total energy for state 50:                  -500.18162844 au
    <S**2>     :  1.5233
    Trans. Mom.: -0.0000 X  -0.0012 Y  -0.2382 Z
    Strength   :     0.0114590179
    D(   39) --> V(    2) amplitude =  0.3901 alpha
    D(   40) --> V(    3) amplitude =  0.4102 alpha
    D(   43) --> V(    4) amplitude =  0.3007 alpha
    S(    1) --> V(   12) amplitude = -0.3948 alpha
    D(   31) --> S(    1) amplitude =  0.1711 beta
    D(   41) --> V(    4) amplitude =  0.4261 beta
    D(   42) --> V(    6) amplitude =  0.1749 beta
    D(   43) --> V(    5) amplitude =  0.1755 beta
 
 ---------------------------------------------------
  SETman timing summary (seconds)
  CPU time               901.36s
  System time              0.00s
  Wall time              937.08s



            *********SPIN-ORBIT COUPLING JOB USING WIGNER–ECKART THEOREM BEGINS HERE*********

 Calculating one electron integrals:  Completed calculation of one electron integrals!
 Calculating MF integrals:  Completed calculation of MF integrals!
 Calculating S^2 values of the spin-states: S^2 values computed!
 Computing transition densities and evaluating SOCME with Libwe: 

**************************************************
 State A: Root 0
 State B: Root 1


 Analysing Sz ans S^2 of the pair of states...
 Ket state:  Computed S^2 = 0.9298485609 will be treated as 0.7500000000 Sz = 0.5000000000
 Bra state:  Computed S^2 = 0.9293862907 will be treated as 0.7500000000 Sz = 0.5000000000
 Clebsh-Gordan coefficient: <0.500,0.500;1.000,0.000|0.500,0.500> = 0.577

_______________________________
 One-electron SO (cm-1)
 Reduced matrix elements:
 <S|| Hso(L-) ||S'> = (0.006305,0.001221)
 <S|| Hso(L0) ||S'> = (0.000000,-0.000493)
 <S|| Hso(L+) ||S'> = (0.006305,-0.001221)

 SOCC = 0.007427


 Actual matrix elements:
       |Sz=-0.50>           |Sz=0.50>
 <Sz=-0.50|(0.000000,0.000285)(0.005148,-0.000997)
 <Sz=0.50|(-0.005148,-0.000997)(0.000000,-0.000285)
_______________________________
 Mean-field SO (cm-1)
 Reduced matrix elements:
 <S|| Hso(L-) ||S'> = (0.003632,0.000980)
 <S|| Hso(L0) ||S'> = (0.000000,0.000067)
 <S|| Hso(L+) ||S'> = (0.003626,-0.000976)

 Singlet part of <S|| Hso(L0) ||S'> = (-0.000000,-0.000023) (excluded from all matrix elements)
 L-/L+ Averaged reduced matrix elements:
 <S|| Hso(L-) ||S'> = (0.003629,0.000978)
 <S|| Hso(L+) ||S'> = (0.003629,-0.000978)

 SOCC = 0.004340


 Actual matrix elements:
       |Sz=-0.50>           |Sz=0.50>
 <Sz=-0.50|(0.000000,-0.000038)(0.002963,-0.000799)
 <Sz=0.50|(-0.002963,-0.000799)(0.000000,0.000038)
_______________________________

**************************************************

**************************************************
 State A: Root 0
 State B: Root 2


 Analysing Sz ans S^2 of the pair of states...
 Ket state:  Computed S^2 = 0.929849 will be treated as 0.750000 Sz = 0.500000
 Bra state:  Computed S^2 = 0.929688 will be treated as 0.750000 Sz = 0.500000
 Clebsh-Gordan coefficient: <0.500,0.500;1.000,0.000|0.500,0.500> = 0.577

_______________________________
 One-electron SO (cm-1)
 Reduced matrix elements:
 <S|| Hso(L-) ||S'> = (0.000724,-0.000064)
 <S|| Hso(L0) ||S'> = (0.000000,-0.006089)
 <S|| Hso(L+) ||S'> = (0.000724,0.000064)

 SOCC = 0.005042


 Actual matrix elements:
       |Sz=-0.50>           |Sz=0.50>
 <Sz=-0.50|(0.000000,0.003516)(0.000591,0.000052)
 <Sz=0.50|(-0.000591,0.000052)(0.000000,-0.003516)
_______________________________
 Mean-field SO (cm-1)
 Reduced matrix elements:
 <S|| Hso(L-) ||S'> = (0.000146,0.000037)
 <S|| Hso(L0) ||S'> = (0.000000,0.000361)
 <S|| Hso(L+) ||S'> = (0.000148,-0.000040)

 Singlet part of <S|| Hso(L0) ||S'> = (-0.000000,-0.000081) (excluded from all matrix elements)
 L-/L+ Averaged reduced matrix elements:
 <S|| Hso(L-) ||S'> = (0.000147,0.000039)
 <S|| Hso(L+) ||S'> = (0.000147,-0.000039)

 SOCC = 0.000343


 Actual matrix elements:
       |Sz=-0.50>           |Sz=0.50>
 <Sz=-0.50|(0.000000,-0.000209)(0.000120,-0.000031)
 <Sz=0.50|(-0.000120,-0.000031)(0.000000,0.000209)
_______________________________

**************************************************

**************************************************
 State A: Root 0
 State B: Root 3


 Analysing Sz ans S^2 of the pair of states...
 Ket state:  Computed S^2 = 0.929849 will be treated as 0.750000 Sz = 0.500000
 Bra state:  Computed S^2 = 0.941080 will be treated as 0.750000 Sz = 0.500000
 Clebsh-Gordan coefficient: <0.500,0.500;1.000,0.000|0.500,0.500> = 0.577

_______________________________
 One-electron SO (cm-1)
 Reduced matrix elements:
 <S|| Hso(L-) ||S'> = (0.000669,-0.005415)
 <S|| Hso(L0) ||S'> = (0.000000,-4.615530)
 <S|| Hso(L+) ||S'> = (0.000669,0.005415)

 SOCC = 3.768570


 Actual matrix elements:
       |Sz=-0.50>           |Sz=0.50>
 <Sz=-0.50|(0.000000,2.664778)(0.000546,0.004421)
 <Sz=0.50|(-0.000546,0.004421)(0.000000,-2.664778)
_______________________________
 Mean-field SO (cm-1)
 Reduced matrix elements:
 <S|| Hso(L-) ||S'> = (0.000537,-0.002869)
 <S|| Hso(L0) ||S'> = (0.000000,0.166066)
 <S|| Hso(L+) ||S'> = (0.000536,0.002859)

 Singlet part of <S|| Hso(L0) ||S'> = (-0.000000,-0.031586) (excluded from all matrix elements)
 L-/L+ Averaged reduced matrix elements:
 <S|| Hso(L-) ||S'> = (0.000536,-0.002864)
 <S|| Hso(L+) ||S'> = (0.000536,0.002864)

 SOCC = 0.135634


 Actual matrix elements:
       |Sz=-0.50>           |Sz=0.50>
 <Sz=-0.50|(0.000000,-0.095878)(0.000438,0.002339)
 <Sz=0.50|(-0.000438,0.002339)(0.000000,0.095878)
_______________________________

**************************************************

**************************************************
 State A: Root 0
 State B: Root 4


 Analysing Sz ans S^2 of the pair of states...
 Ket state:  Computed S^2 = 0.929849 will be treated as 0.750000 Sz = 0.500000
 Bra state:  Computed S^2 = 0.992105 will be treated as 0.750000 Sz = 0.500000
 Clebsh-Gordan coefficient: <0.500,0.500;1.000,0.000|0.500,0.500> = 0.577

_______________________________
 One-electron SO (cm-1)
 Reduced matrix elements:
 <S|| Hso(L-) ||S'> = (-0.001323,0.005764)
 <S|| Hso(L0) ||S'> = (0.000000,-0.002040)
 <S|| Hso(L+) ||S'> = (-0.001323,-0.005764)

 SOCC = 0.007029


 Actual matrix elements:
       |Sz=-0.50>           |Sz=0.50>
 <Sz=-0.50|(0.000000,0.001178)(-0.001080,-0.004706)
 <Sz=0.50|(0.001080,-0.004706)(0.000000,-0.001178)
_______________________________
 Mean-field SO (cm-1)
 Reduced matrix elements:
 <S|| Hso(L-) ||S'> = (-0.000707,0.003461)
 <S|| Hso(L0) ||S'> = (0.000000,-0.255242)
 <S|| Hso(L+) ||S'> = (-0.000703,-0.003451)

 Singlet part of <S|| Hso(L0) ||S'> = (0.000000,0.001949) (excluded from all matrix elements)
 L-/L+ Averaged reduced matrix elements:
 <S|| Hso(L-) ||S'> = (-0.000705,0.003456)
 <S|| Hso(L+) ||S'> = (-0.000705,-0.003456)

 SOCC = 0.208444


 Actual matrix elements:
       |Sz=-0.50>           |Sz=0.50>
 <Sz=-0.50|(0.000000,0.147364)(-0.000576,-0.002822)
 <Sz=0.50|(0.000576,-0.002822)(0.000000,-0.147364)
_______________________________

**************************************************

**************************************************
 State A: Root 0
 State B: Root 5


 Analysing Sz ans S^2 of the pair of states...
 Ket state:  Computed S^2 = 0.929849 will be treated as 0.750000 Sz = 0.500000
 Bra state:  Computed S^2 = 0.993720 will be treated as 0.750000 Sz = 0.500000
 Clebsh-Gordan coefficient: <0.500,0.500;1.000,0.000|0.500,0.500> = 0.577

_______________________________
 One-electron SO (cm-1)
 Reduced matrix elements:
 <S|| Hso(L-) ||S'> = (0.002158,0.002590)
 <S|| Hso(L0) ||S'> = (0.000000,-0.000537)
 <S|| Hso(L+) ||S'> = (0.002158,-0.002590)

 SOCC = 0.003918


 Actual matrix elements:
       |Sz=-0.50>           |Sz=0.50>
 <Sz=-0.50|(0.000000,0.000310)(0.001762,-0.002115)
 <Sz=0.50|(-0.001762,-0.002115)(0.000000,-0.000310)
_______________________________
 Mean-field SO (cm-1)
 Reduced matrix elements:
 <S|| Hso(L-) ||S'> = (0.001286,0.001530)
 <S|| Hso(L0) ||S'> = (0.000000,0.000184)
 <S|| Hso(L+) ||S'> = (0.001280,-0.001523)

 Singlet part of <S|| Hso(L0) ||S'> = (0.000000,0.000008) (excluded from all matrix elements)
 L-/L+ Averaged reduced matrix elements:
 <S|| Hso(L-) ||S'> = (0.001283,0.001527)
 <S|| Hso(L+) ||S'> = (0.001283,-0.001527)

 SOCC = 0.002307


 Actual matrix elements:
       |Sz=-0.50>           |Sz=0.50>
 <Sz=-0.50|(0.000000,-0.000106)(0.001047,-0.001246)
 <Sz=0.50|(-0.001047,-0.001246)(0.000000,0.000106)
_______________________________

**************************************************

**************************************************
 State A: Root 0
 State B: Root 6


 Analysing Sz ans S^2 of the pair of states...
 Ket state:  Computed S^2 = 0.929849 will be treated as 0.750000 Sz = 0.500000
 Bra state:  Computed S^2 = 0.993820 will be treated as 0.750000 Sz = 0.500000
 Clebsh-Gordan coefficient: <0.500,0.500;1.000,0.000|0.500,0.500> = 0.577

_______________________________
 One-electron SO (cm-1)
 Reduced matrix elements:
 <S|| Hso(L-) ||S'> = (0.001360,0.000871)
 <S|| Hso(L0) ||S'> = (0.000000,0.002422)
 <S|| Hso(L+) ||S'> = (0.001360,-0.000871)

 SOCC = 0.002718


 Actual matrix elements:
       |Sz=-0.50>           |Sz=0.50>
 <Sz=-0.50|(0.000000,-0.001398)(0.001111,-0.000711)
 <Sz=0.50|(-0.001111,-0.000711)(0.000000,0.001398)
_______________________________
 Mean-field SO (cm-1)
 Reduced matrix elements:
 <S|| Hso(L-) ||S'> = (0.000878,0.000478)
 <S|| Hso(L0) ||S'> = (0.000000,-0.000218)
 <S|| Hso(L+) ||S'> = (0.000867,-0.000485)

 Singlet part of <S|| Hso(L0) ||S'> = (-0.000000,-0.000040) (excluded from all matrix elements)
 L-/L+ Averaged reduced matrix elements:
 <S|| Hso(L-) ||S'> = (0.000873,0.000482)
 <S|| Hso(L+) ||S'> = (0.000873,-0.000482)

 SOCC = 0.001165


 Actual matrix elements:
       |Sz=-0.50>           |Sz=0.50>
 <Sz=-0.50|(0.000000,0.000126)(0.000713,-0.000393)
 <Sz=0.50|(-0.000713,-0.000393)(0.000000,-0.000126)
_______________________________

**************************************************

**************************************************
 State A: Root 0
 State B: Root 7


 Analysing Sz ans S^2 of the pair of states...
 Ket state:  Computed S^2 = 0.929849 will be treated as 0.750000 Sz = 0.500000
WARNING! The deviation of S^2 from the correct value is large, indicating a significant spin contamination. The results may be unreliable
 Bra state:  Computed S^2 = 2.817475 will be treated as 3.750000 Sz = 0.500000
 Clebsh-Gordan coefficient: <0.500,0.500;1.000,0.000|1.500,0.500> = 0.816

_______________________________
 One-electron SO (cm-1)
 Reduced matrix elements:
 <S|| Hso(L-) ||S'> = (0.003377,-0.003275)
 <S|| Hso(L0) ||S'> = (0.000000,-0.001139)
 <S|| Hso(L+) ||S'> = (0.003377,0.003275)

 SOCC = 0.007793


 Actual matrix elements:
       |Sz=-0.50>           |Sz=0.50>
 <Sz=-1.50|(0.003377,0.003275)(0.000000,0.000000)
 <Sz=-0.50|(-0.000000,-0.000930)(0.001950,0.001891)
 <Sz=0.50|(0.001950,-0.001891)(0.000000,-0.000930)
 <Sz=1.50|(0.000000,0.000000)(0.003377,-0.003275)
_______________________________
 Mean-field SO (cm-1)
 Reduced matrix elements:
 <S|| Hso(L-) ||S'> = (0.001964,-0.001271)
 <S|| Hso(L0) ||S'> = (0.000000,-0.000058)
 <S|| Hso(L+) ||S'> = (0.001979,0.001268)

 Singlet part of <S|| Hso(L0) ||S'> = (0.000000,0.000003) (excluded from all matrix elements)
 L-/L+ Averaged reduced matrix elements:
 <S|| Hso(L-) ||S'> = (0.001971,-0.001269)
 <S|| Hso(L+) ||S'> = (0.001971,0.001269)

 SOCC = 0.003829


 Actual matrix elements:
       |Sz=-0.50>           |Sz=0.50>
 <Sz=-1.50|(0.001971,0.001269)(0.000000,0.000000)
 <Sz=-0.50|(-0.000000,-0.000048)(0.001138,0.000733)
 <Sz=0.50|(0.001138,-0.000733)(0.000000,-0.000048)
 <Sz=1.50|(0.000000,0.000000)(0.001971,-0.001269)
_______________________________

**************************************************

**************************************************
 State A: Root 0
 State B: Root 8


 Analysing Sz ans S^2 of the pair of states...
 Ket state:  Computed S^2 = 0.929849 will be treated as 0.750000 Sz = 0.500000
WARNING! The deviation of S^2 from the correct value is large, indicating a significant spin contamination. The results may be unreliable
 Bra state:  Computed S^2 = 2.388034 will be treated as 3.750000 Sz = 0.500000
 Clebsh-Gordan coefficient: <0.500,0.500;1.000,0.000|1.500,0.500> = 0.816

_______________________________
 One-electron SO (cm-1)
 Reduced matrix elements:
 <S|| Hso(L-) ||S'> = (-0.002460,0.001064)
 <S|| Hso(L0) ||S'> = (0.000000,-0.001407)
 <S|| Hso(L+) ||S'> = (-0.002460,-0.001064)

 SOCC = 0.004668


 Actual matrix elements:
       |Sz=-0.50>           |Sz=0.50>
 <Sz=-1.50|(-0.002460,-0.001064)(0.000000,0.000000)
 <Sz=-0.50|(0.000000,-0.001148)(-0.001420,-0.000614)
 <Sz=0.50|(-0.001420,0.000614)(-0.000000,-0.001148)
 <Sz=1.50|(0.000000,0.000000)(-0.002460,0.001064)
_______________________________
 Mean-field SO (cm-1)
 Reduced matrix elements:
 <S|| Hso(L-) ||S'> = (-0.001495,0.001170)
 <S|| Hso(L0) ||S'> = (0.000000,-0.000026)
 <S|| Hso(L+) ||S'> = (-0.001502,-0.001157)

 Singlet part of <S|| Hso(L0) ||S'> = (0.000000,0.000016) (excluded from all matrix elements)
 L-/L+ Averaged reduced matrix elements:
 <S|| Hso(L-) ||S'> = (-0.001498,0.001163)
 <S|| Hso(L+) ||S'> = (-0.001498,-0.001163)

 SOCC = 0.003098


 Actual matrix elements:
       |Sz=-0.50>           |Sz=0.50>
 <Sz=-1.50|(-0.001498,-0.001163)(0.000000,0.000000)
 <Sz=-0.50|(0.000000,-0.000021)(-0.000865,-0.000672)
 <Sz=0.50|(-0.000865,0.000672)(-0.000000,-0.000021)
 <Sz=1.50|(0.000000,0.000000)(-0.001498,0.001163)
_______________________________

**************************************************

**************************************************
 State A: Root 0
 State B: Root 9


 Analysing Sz ans S^2 of the pair of states...
 Ket state:  Computed S^2 = 0.929849 will be treated as 0.750000 Sz = 0.500000
WARNING! The deviation of S^2 from the correct value is large, indicating a significant spin contamination. The results may be unreliable
 Bra state:  Computed S^2 = 2.388531 will be treated as 3.750000 Sz = 0.500000
 Clebsh-Gordan coefficient: <0.500,0.500;1.000,0.000|1.500,0.500> = 0.816

_______________________________
 One-electron SO (cm-1)
 Reduced matrix elements:
 <S|| Hso(L-) ||S'> = (-0.002145,-0.002233)
 <S|| Hso(L0) ||S'> = (0.000000,0.001120)
 <S|| Hso(L+) ||S'> = (-0.002145,0.002233)

 SOCC = 0.005219


 Actual matrix elements:
       |Sz=-0.50>           |Sz=0.50>
 <Sz=-1.50|(-0.002145,0.002233)(0.000000,0.000000)
 <Sz=-0.50|(0.000000,0.000914)(-0.001238,0.001289)
 <Sz=0.50|(-0.001238,-0.001289)(-0.000000,0.000914)
 <Sz=1.50|(0.000000,0.000000)(-0.002145,-0.002233)
_______________________________
 Mean-field SO (cm-1)
 Reduced matrix elements:
 <S|| Hso(L-) ||S'> = (-0.001235,-0.000833)
 <S|| Hso(L0) ||S'> = (0.000000,0.000005)
 <S|| Hso(L+) ||S'> = (-0.001242,0.000839)

 Singlet part of <S|| Hso(L0) ||S'> = (-0.000000,-0.000014) (excluded from all matrix elements)
 L-/L+ Averaged reduced matrix elements:
 <S|| Hso(L-) ||S'> = (-0.001238,-0.000836)
 <S|| Hso(L+) ||S'> = (-0.001238,0.000836)

 SOCC = 0.002440


 Actual matrix elements:
       |Sz=-0.50>           |Sz=0.50>
 <Sz=-1.50|(-0.001238,0.000836)(0.000000,0.000000)
 <Sz=-0.50|(0.000000,0.000004)(-0.000715,0.000483)
 <Sz=0.50|(-0.000715,-0.000483)(-0.000000,0.000004)
 <Sz=1.50|(0.000000,0.000000)(-0.001238,-0.000836)
_______________________________

**************************************************

**************************************************
 State A: Root 0
 State B: Root 10


 Analysing Sz ans S^2 of the pair of states...
 Ket state:  Computed S^2 = 0.929849 will be treated as 0.750000 Sz = 0.500000
WARNING! The deviation of S^2 from the correct value is large, indicating a significant spin contamination. The results may be unreliable
 Bra state:  Computed S^2 = 2.192181 will be treated as 3.750000 Sz = 0.500000
 Clebsh-Gordan coefficient: <0.500,0.500;1.000,0.000|1.500,0.500> = 0.816

_______________________________
 One-electron SO (cm-1)
 Reduced matrix elements:
 <S|| Hso(L-) ||S'> = (0.005076,-0.008702)
 <S|| Hso(L0) ||S'> = (0.000000,-0.000390)
 <S|| Hso(L+) ||S'> = (0.005076,0.008702)

 SOCC = 0.016457


 Actual matrix elements:
       |Sz=-0.50>           |Sz=0.50>
 <Sz=-1.50|(0.005076,0.008702)(0.000000,0.000000)
 <Sz=-0.50|(-0.000000,-0.000318)(0.002930,0.005024)
 <Sz=0.50|(0.002930,-0.005024)(0.000000,-0.000318)
 <Sz=1.50|(0.000000,0.000000)(0.005076,-0.008702)
_______________________________
 Mean-field SO (cm-1)
 Reduced matrix elements:
 <S|| Hso(L-) ||S'> = (0.002988,-0.005093)
 <S|| Hso(L0) ||S'> = (0.000000,-0.000088)
 <S|| Hso(L+) ||S'> = (0.002993,0.005087)

 Singlet part of <S|| Hso(L0) ||S'> = (0.000000,0.000044) (excluded from all matrix elements)
 L-/L+ Averaged reduced matrix elements:
 <S|| Hso(L-) ||S'> = (0.002990,-0.005090)
 <S|| Hso(L+) ||S'> = (0.002990,0.005090)

 SOCC = 0.009641


 Actual matrix elements:
       |Sz=-0.50>           |Sz=0.50>
 <Sz=-1.50|(0.002990,0.005090)(0.000000,0.000000)
 <Sz=-0.50|(-0.000000,-0.000072)(0.001727,0.002939)
 <Sz=0.50|(0.001727,-0.002939)(0.000000,-0.000072)
 <Sz=1.50|(0.000000,0.000000)(0.002990,-0.005090)
_______________________________

**************************************************

**************************************************
 State A: Root 0
 State B: Root 11


 Analysing Sz ans S^2 of the pair of states...
 Ket state:  Computed S^2 = 0.929849 will be treated as 0.750000 Sz = 0.500000
WARNING! The deviation of S^2 from the correct value is large, indicating a significant spin contamination. The results may be unreliable
 Bra state:  Computed S^2 = 2.191753 will be treated as 3.750000 Sz = 0.500000
 Clebsh-Gordan coefficient: <0.500,0.500;1.000,0.000|1.500,0.500> = 0.816

_______________________________
 One-electron SO (cm-1)
 Reduced matrix elements:
 <S|| Hso(L-) ||S'> = (-0.002410,-0.001334)
 <S|| Hso(L0) ||S'> = (0.000000,0.000392)
 <S|| Hso(L+) ||S'> = (-0.002410,0.001334)

 SOCC = 0.004521


 Actual matrix elements:
       |Sz=-0.50>           |Sz=0.50>
 <Sz=-1.50|(-0.002410,0.001334)(0.000000,0.000000)
 <Sz=-0.50|(0.000000,0.000320)(-0.001391,0.000770)
 <Sz=0.50|(-0.001391,-0.000770)(-0.000000,0.000320)
 <Sz=1.50|(0.000000,0.000000)(-0.002410,-0.001334)
_______________________________
 Mean-field SO (cm-1)
 Reduced matrix elements:
 <S|| Hso(L-) ||S'> = (-0.002083,-0.000949)
 <S|| Hso(L0) ||S'> = (0.000000,0.000022)
 <S|| Hso(L+) ||S'> = (-0.002075,0.000948)

 Singlet part of <S|| Hso(L0) ||S'> = (-0.000000,-0.000023) (excluded from all matrix elements)
 L-/L+ Averaged reduced matrix elements:
 <S|| Hso(L-) ||S'> = (-0.002079,-0.000948)
 <S|| Hso(L+) ||S'> = (-0.002079,0.000948)

 SOCC = 0.003732


 Actual matrix elements:
       |Sz=-0.50>           |Sz=0.50>
 <Sz=-1.50|(-0.002079,0.000948)(0.000000,0.000000)
 <Sz=-0.50|(0.000000,0.000018)(-0.001200,0.000548)
 <Sz=0.50|(-0.001200,-0.000548)(-0.000000,0.000018)
 <Sz=1.50|(0.000000,0.000000)(-0.002079,-0.000948)
_______________________________

**************************************************

**************************************************
 State A: Root 0
 State B: Root 12


 Analysing Sz ans S^2 of the pair of states...
 Ket state:  Computed S^2 = 0.929849 will be treated as 0.750000 Sz = 0.500000
WARNING! The deviation of S^2 from the correct value is large, indicating a significant spin contamination. The results may be unreliable
 Bra state:  Computed S^2 = 2.785916 will be treated as 3.750000 Sz = 0.500000
 Clebsh-Gordan coefficient: <0.500,0.500;1.000,0.000|1.500,0.500> = 0.816

_______________________________
 One-electron SO (cm-1)
 Reduced matrix elements:
 <S|| Hso(L-) ||S'> = (-0.005111,0.002187)
 <S|| Hso(L0) ||S'> = (0.000000,-0.000308)
 <S|| Hso(L+) ||S'> = (-0.005111,-0.002187)

 SOCC = 0.009085


 Actual matrix elements:
       |Sz=-0.50>           |Sz=0.50>
 <Sz=-1.50|(-0.005111,-0.002187)(0.000000,0.000000)
 <Sz=-0.50|(0.000000,-0.000252)(-0.002951,-0.001263)
 <Sz=0.50|(-0.002951,0.001263)(-0.000000,-0.000252)
 <Sz=1.50|(0.000000,0.000000)(-0.005111,0.002187)
_______________________________
 Mean-field SO (cm-1)
 Reduced matrix elements:
 <S|| Hso(L-) ||S'> = (-0.002761,0.000872)
 <S|| Hso(L0) ||S'> = (0.000000,-0.000025)
 <S|| Hso(L+) ||S'> = (-0.002767,-0.000878)

 Singlet part of <S|| Hso(L0) ||S'> = (-0.000000,-0.000008) (excluded from all matrix elements)
 L-/L+ Averaged reduced matrix elements:
 <S|| Hso(L-) ||S'> = (-0.002764,0.000875)
 <S|| Hso(L+) ||S'> = (-0.002764,-0.000875)

 SOCC = 0.004735


 Actual matrix elements:
       |Sz=-0.50>           |Sz=0.50>
 <Sz=-1.50|(-0.002764,-0.000875)(0.000000,0.000000)
 <Sz=-0.50|(0.000000,-0.000021)(-0.001596,-0.000505)
 <Sz=0.50|(-0.001596,0.000505)(-0.000000,-0.000021)
 <Sz=1.50|(0.000000,0.000000)(-0.002764,0.000875)
_______________________________

**************************************************

**************************************************
 State A: Root 0
 State B: Root 13


 Analysing Sz ans S^2 of the pair of states...
 Ket state:  Computed S^2 = 0.929849 will be treated as 0.750000 Sz = 0.500000
 Bra state:  Computed S^2 = 0.986180 will be treated as 0.750000 Sz = 0.500000
 Clebsh-Gordan coefficient: <0.500,0.500;1.000,0.000|0.500,0.500> = 0.577

_______________________________
 One-electron SO (cm-1)
 Reduced matrix elements:
 <S|| Hso(L-) ||S'> = (-0.006489,0.004367)
 <S|| Hso(L0) ||S'> = (0.000000,0.016987)
 <S|| Hso(L+) ||S'> = (-0.006489,-0.004367)

 SOCC = 0.016551


 Actual matrix elements:
       |Sz=-0.50>           |Sz=0.50>
 <Sz=-0.50|(0.000000,-0.009807)(-0.005298,-0.003566)
 <Sz=0.50|(0.005298,-0.003566)(0.000000,0.009807)
_______________________________
 Mean-field SO (cm-1)
 Reduced matrix elements:
 <S|| Hso(L-) ||S'> = (-0.003312,0.002119)
 <S|| Hso(L0) ||S'> = (0.000000,0.008430)
 <S|| Hso(L+) ||S'> = (-0.003289,-0.002096)

 Singlet part of <S|| Hso(L0) ||S'> = (-0.000000,-0.000037) (excluded from all matrix elements)
 L-/L+ Averaged reduced matrix elements:
 <S|| Hso(L-) ||S'> = (-0.003301,0.002107)
 <S|| Hso(L+) ||S'> = (-0.003301,-0.002107)

 SOCC = 0.008236


 Actual matrix elements:
       |Sz=-0.50>           |Sz=0.50>
 <Sz=-0.50|(0.000000,-0.004867)(-0.002695,-0.001721)
 <Sz=0.50|(0.002695,-0.001721)(0.000000,0.004867)
_______________________________

**************************************************

**************************************************
 State A: Root 0
 State B: Root 14


 Analysing Sz ans S^2 of the pair of states...
 Ket state:  Computed S^2 = 0.929849 will be treated as 0.750000 Sz = 0.500000
WARNING! The deviation of S^2 from the correct value is large, indicating a significant spin contamination. The results may be unreliable
 Bra state:  Computed S^2 = 2.551931 will be treated as 3.750000 Sz = 0.500000
 Clebsh-Gordan coefficient: <0.500,0.500;1.000,0.000|1.500,0.500> = 0.816

_______________________________
 One-electron SO (cm-1)
 Reduced matrix elements:
 <S|| Hso(L-) ||S'> = (0.013794,-0.002887)
 <S|| Hso(L0) ||S'> = (0.000000,-0.003993)
 <S|| Hso(L+) ||S'> = (0.013794,0.002887)

 SOCC = 0.023470


 Actual matrix elements:
       |Sz=-0.50>           |Sz=0.50>
 <Sz=-1.50|(0.013794,0.002887)(0.000000,0.000000)
 <Sz=-0.50|(-0.000000,-0.003260)(0.007964,0.001667)
 <Sz=0.50|(0.007964,-0.001667)(0.000000,-0.003260)
 <Sz=1.50|(0.000000,0.000000)(0.013794,-0.002887)
_______________________________
 Mean-field SO (cm-1)
 Reduced matrix elements:
 <S|| Hso(L-) ||S'> = (0.007831,-0.001670)
 <S|| Hso(L0) ||S'> = (0.000000,0.001144)
 <S|| Hso(L+) ||S'> = (0.007849,0.001681)

 Singlet part of <S|| Hso(L0) ||S'> = (-0.000000,-0.000091) (excluded from all matrix elements)
 L-/L+ Averaged reduced matrix elements:
 <S|| Hso(L-) ||S'> = (0.007840,-0.001676)
 <S|| Hso(L+) ||S'> = (0.007840,0.001676)

 SOCC = 0.013159


 Actual matrix elements:
       |Sz=-0.50>           |Sz=0.50>
 <Sz=-1.50|(0.007840,0.001676)(0.000000,0.000000)
 <Sz=-0.50|(-0.000000,0.000934)(0.004527,0.000967)
 <Sz=0.50|(0.004527,-0.000967)(0.000000,0.000934)
 <Sz=1.50|(0.000000,0.000000)(0.007840,-0.001676)
_______________________________

**************************************************

**************************************************
 State A: Root 0
 State B: Root 15


 Analysing Sz ans S^2 of the pair of states...
 Ket state:  Computed S^2 = 0.929849 will be treated as 0.750000 Sz = 0.500000
WARNING! The deviation of S^2 from the correct value is large, indicating a significant spin contamination. The results may be unreliable
 Bra state:  Computed S^2 = 2.551281 will be treated as 3.750000 Sz = 0.500000
 Clebsh-Gordan coefficient: <0.500,0.500;1.000,0.000|1.500,0.500> = 0.816

_______________________________
 One-electron SO (cm-1)
 Reduced matrix elements:
 <S|| Hso(L-) ||S'> = (-0.009590,-0.007855)
 <S|| Hso(L0) ||S'> = (0.000000,-0.002686)
 <S|| Hso(L+) ||S'> = (-0.009590,0.007855)

 SOCC = 0.020480


 Actual matrix elements:
       |Sz=-0.50>           |Sz=0.50>
 <Sz=-1.50|(-0.009590,0.007855)(0.000000,0.000000)
 <Sz=-0.50|(0.000000,-0.002193)(-0.005537,0.004535)
 <Sz=0.50|(-0.005537,-0.004535)(-0.000000,-0.002193)
 <Sz=1.50|(0.000000,0.000000)(-0.009590,-0.007855)
_______________________________
 Mean-field SO (cm-1)
 Reduced matrix elements:
 <S|| Hso(L-) ||S'> = (-0.005301,-0.004436)
 <S|| Hso(L0) ||S'> = (0.000000,0.000934)
 <S|| Hso(L+) ||S'> = (-0.005305,0.004445)

 Singlet part of <S|| Hso(L0) ||S'> = (-0.000000,-0.000065) (excluded from all matrix elements)
 L-/L+ Averaged reduced matrix elements:
 <S|| Hso(L-) ||S'> = (-0.005303,-0.004440)
 <S|| Hso(L+) ||S'> = (-0.005303,0.004440)

 SOCC = 0.011346


 Actual matrix elements:
       |Sz=-0.50>           |Sz=0.50>
 <Sz=-1.50|(-0.005303,0.004440)(0.000000,0.000000)
 <Sz=-0.50|(0.000000,0.000763)(-0.003062,0.002564)
 <Sz=0.50|(-0.003062,-0.002564)(-0.000000,0.000763)
 <Sz=1.50|(0.000000,0.000000)(-0.005303,-0.004440)
_______________________________

**************************************************

**************************************************
 State A: Root 0
 State B: Root 16


 Analysing Sz ans S^2 of the pair of states...
 Ket state:  Computed S^2 = 0.929849 will be treated as 0.750000 Sz = 0.500000
 Bra state:  Computed S^2 = 0.987168 will be treated as 0.750000 Sz = 0.500000
 Clebsh-Gordan coefficient: <0.500,0.500;1.000,0.000|0.500,0.500> = 0.577

_______________________________
 One-electron SO (cm-1)
 Reduced matrix elements:
 <S|| Hso(L-) ||S'> = (-0.200592,1.857439)
 <S|| Hso(L0) ||S'> = (0.000000,0.000995)
 <S|| Hso(L+) ||S'> = (-0.200592,-1.857439)

 SOCC = 2.157256


 Actual matrix elements:
       |Sz=-0.50>           |Sz=0.50>
 <Sz=-0.50|(0.000000,-0.000575)(-0.163783,-1.516592)
 <Sz=0.50|(0.163783,-1.516592)(0.000000,0.000575)
_______________________________
 Mean-field SO (cm-1)
 Reduced matrix elements:
 <S|| Hso(L-) ||S'> = (-0.108332,0.998740)
 <S|| Hso(L0) ||S'> = (0.000000,-0.000211)
 <S|| Hso(L+) ||S'> = (-0.108605,-1.001022)

 Singlet part of <S|| Hso(L0) ||S'> = (0.000000,0.000017) (excluded from all matrix elements)
 L-/L+ Averaged reduced matrix elements:
 <S|| Hso(L-) ||S'> = (-0.108468,0.999881)
 <S|| Hso(L+) ||S'> = (-0.108468,-0.999881)

 SOCC = 1.161336


 Actual matrix elements:
       |Sz=-0.50>           |Sz=0.50>
 <Sz=-0.50|(0.000000,0.000122)(-0.088564,-0.816399)
 <Sz=0.50|(0.088564,-0.816399)(0.000000,-0.000122)
_______________________________

**************************************************

**************************************************
 State A: Root 0
 State B: Root 17


 Analysing Sz ans S^2 of the pair of states...
 Ket state:  Computed S^2 = 0.929849 will be treated as 0.750000 Sz = 0.500000
 Bra state:  Computed S^2 = 0.987342 will be treated as 0.750000 Sz = 0.500000
 Clebsh-Gordan coefficient: <0.500,0.500;1.000,0.000|0.500,0.500> = 0.577

_______________________________
 One-electron SO (cm-1)
 Reduced matrix elements:
 <S|| Hso(L-) ||S'> = (-1.854590,-0.204716)
 <S|| Hso(L0) ||S'> = (0.000000,0.007480)
 <S|| Hso(L+) ||S'> = (-1.854590,0.204716)

 SOCC = 2.154512


 Actual matrix elements:
       |Sz=-0.50>           |Sz=0.50>
 <Sz=-0.50|(0.000000,-0.004319)(-1.514266,0.167150)
 <Sz=0.50|(1.514266,0.167150)(0.000000,0.004319)
_______________________________
 Mean-field SO (cm-1)
 Reduced matrix elements:
 <S|| Hso(L-) ||S'> = (-0.997895,-0.110277)
 <S|| Hso(L0) ||S'> = (0.000000,0.004238)
 <S|| Hso(L+) ||S'> = (-1.000203,0.110555)

 Singlet part of <S|| Hso(L0) ||S'> = (-0.000000,-0.000005) (excluded from all matrix elements)
 L-/L+ Averaged reduced matrix elements:
 <S|| Hso(L-) ||S'> = (-0.999049,-0.110416)
 <S|| Hso(L+) ||S'> = (-0.999049,0.110416)

 SOCC = 1.160632


 Actual matrix elements:
       |Sz=-0.50>           |Sz=0.50>
 <Sz=-0.50|(0.000000,-0.002447)(-0.815720,0.090154)
 <Sz=0.50|(0.815720,0.090154)(0.000000,0.002447)
_______________________________

**************************************************

**************************************************
 State A: Root 0
 State B: Root 18


 Analysing Sz ans S^2 of the pair of states...
 Ket state:  Computed S^2 = 0.929849 will be treated as 0.750000 Sz = 0.500000
WARNING! The deviation of S^2 from the correct value is large, indicating a significant spin contamination. The results may be unreliable
 Bra state:  Computed S^2 = 2.385986 will be treated as 3.750000 Sz = 0.500000
 Clebsh-Gordan coefficient: <0.500,0.500;1.000,0.000|1.500,0.500> = 0.816

_______________________________
 One-electron SO (cm-1)
 Reduced matrix elements:
 <S|| Hso(L-) ||S'> = (-0.000954,-0.002077)
 <S|| Hso(L0) ||S'> = (0.000000,0.813725)
 <S|| Hso(L+) ||S'> = (-0.000954,0.002077)

 SOCC = 0.939617


 Actual matrix elements:
       |Sz=-0.50>           |Sz=0.50>
 <Sz=-1.50|(-0.000954,0.002077)(0.000000,0.000000)
 <Sz=-0.50|(0.000000,0.664404)(-0.000551,0.001199)
 <Sz=0.50|(-0.000551,-0.001199)(-0.000000,0.664404)
 <Sz=1.50|(0.000000,0.000000)(-0.000954,-0.002077)
_______________________________
 Mean-field SO (cm-1)
 Reduced matrix elements:
 <S|| Hso(L-) ||S'> = (-0.000281,-0.001367)
 <S|| Hso(L0) ||S'> = (0.000000,-0.238709)
 <S|| Hso(L+) ||S'> = (-0.000283,0.001366)

 Singlet part of <S|| Hso(L0) ||S'> = (0.000000,0.025513) (excluded from all matrix elements)
 L-/L+ Averaged reduced matrix elements:
 <S|| Hso(L-) ||S'> = (-0.000282,-0.001367)
 <S|| Hso(L+) ||S'> = (-0.000282,0.001367)

 SOCC = 0.275647


 Actual matrix elements:
       |Sz=-0.50>           |Sz=0.50>
 <Sz=-1.50|(-0.000282,0.001367)(0.000000,0.000000)
 <Sz=-0.50|(0.000000,-0.194905)(-0.000163,0.000789)
 <Sz=0.50|(-0.000163,-0.000789)(-0.000000,-0.194905)
 <Sz=1.50|(0.000000,0.000000)(-0.000282,-0.001367)
_______________________________

**************************************************

**************************************************
 State A: Root 0
 State B: Root 19


 Analysing Sz ans S^2 of the pair of states...
 Ket state:  Computed S^2 = 0.929849 will be treated as 0.750000 Sz = 0.500000
WARNING! The deviation of S^2 from the correct value is large, indicating a significant spin contamination. The results may be unreliable
 Bra state:  Computed S^2 = 1.421075 will be treated as 0.750000 Sz = 0.500000
 Clebsh-Gordan coefficient: <0.500,0.500;1.000,0.000|0.500,0.500> = 0.577

_______________________________
 One-electron SO (cm-1)
 Reduced matrix elements:
 <S|| Hso(L-) ||S'> = (0.000656,-0.001388)
 <S|| Hso(L0) ||S'> = (0.000000,0.029640)
 <S|| Hso(L+) ||S'> = (0.000656,0.001388)

 SOCC = 0.024266


 Actual matrix elements:
       |Sz=-0.50>           |Sz=0.50>
 <Sz=-0.50|(0.000000,-0.017113)(0.000536,0.001134)
 <Sz=0.50|(-0.000536,0.001134)(0.000000,0.017113)
_______________________________
 Mean-field SO (cm-1)
 Reduced matrix elements:
 <S|| Hso(L-) ||S'> = (0.000690,-0.000608)
 <S|| Hso(L0) ||S'> = (0.000000,-0.010378)
 <S|| Hso(L+) ||S'> = (0.000682,0.000603)

 Singlet part of <S|| Hso(L0) ||S'> = (0.000000,0.000529) (excluded from all matrix elements)
 L-/L+ Averaged reduced matrix elements:
 <S|| Hso(L-) ||S'> = (0.000686,-0.000606)
 <S|| Hso(L+) ||S'> = (0.000686,0.000606)

 SOCC = 0.008539


 Actual matrix elements:
       |Sz=-0.50>           |Sz=0.50>
 <Sz=-0.50|(0.000000,0.005992)(0.000560,0.000494)
 <Sz=0.50|(-0.000560,0.000494)(0.000000,-0.005992)
_______________________________

**************************************************

**************************************************
 State A: Root 0
 State B: Root 20


 Analysing Sz ans S^2 of the pair of states...
 Ket state:  Computed S^2 = 0.929849 will be treated as 0.750000 Sz = 0.500000
WARNING! The deviation of S^2 from the correct value is large, indicating a significant spin contamination. The results may be unreliable
 Bra state:  Computed S^2 = 1.420447 will be treated as 0.750000 Sz = 0.500000
 Clebsh-Gordan coefficient: <0.500,0.500;1.000,0.000|0.500,0.500> = 0.577

_______________________________
 One-electron SO (cm-1)
 Reduced matrix elements:
 <S|| Hso(L-) ||S'> = (-0.006512,0.001604)
 <S|| Hso(L0) ||S'> = (0.000000,0.003437)
 <S|| Hso(L+) ||S'> = (-0.006512,-0.001604)

 SOCC = 0.008237


 Actual matrix elements:
       |Sz=-0.50>           |Sz=0.50>
 <Sz=-0.50|(0.000000,-0.001984)(-0.005317,-0.001309)
 <Sz=0.50|(0.005317,-0.001309)(0.000000,0.001984)
_______________________________
 Mean-field SO (cm-1)
 Reduced matrix elements:
 <S|| Hso(L-) ||S'> = (-0.003180,0.000665)
 <S|| Hso(L0) ||S'> = (0.000000,-0.001058)
 <S|| Hso(L+) ||S'> = (-0.003191,-0.000669)

 Singlet part of <S|| Hso(L0) ||S'> = (0.000000,0.000074) (excluded from all matrix elements)
 L-/L+ Averaged reduced matrix elements:
 <S|| Hso(L-) ||S'> = (-0.003185,0.000667)
 <S|| Hso(L+) ||S'> = (-0.003185,-0.000667)

 SOCC = 0.003856


 Actual matrix elements:
       |Sz=-0.50>           |Sz=0.50>
 <Sz=-0.50|(0.000000,0.000611)(-0.002601,-0.000545)
 <Sz=0.50|(0.002601,-0.000545)(0.000000,-0.000611)
_______________________________

**************************************************

**************************************************
 State A: Root 0
 State B: Root 21


 Analysing Sz ans S^2 of the pair of states...
 Ket state:  Computed S^2 = 0.929849 will be treated as 0.750000 Sz = 0.500000
 Bra state:  Computed S^2 = 0.899727 will be treated as 0.750000 Sz = 0.500000
 Clebsh-Gordan coefficient: <0.500,0.500;1.000,0.000|0.500,0.500> = 0.577

_______________________________
 One-electron SO (cm-1)
 Reduced matrix elements:
 <S|| Hso(L-) ||S'> = (0.001023,0.001355)
 <S|| Hso(L0) ||S'> = (0.000000,-0.001442)
 <S|| Hso(L+) ||S'> = (0.001023,-0.001355)

 SOCC = 0.002287


 Actual matrix elements:
       |Sz=-0.50>           |Sz=0.50>
 <Sz=-0.50|(0.000000,0.000832)(0.000835,-0.001106)
 <Sz=0.50|(-0.000835,-0.001106)(0.000000,-0.000832)
_______________________________
 Mean-field SO (cm-1)
 Reduced matrix elements:
 <S|| Hso(L-) ||S'> = (0.000499,0.000649)
 <S|| Hso(L0) ||S'> = (0.000000,-0.000666)
 <S|| Hso(L+) ||S'> = (0.000492,-0.000644)

 Singlet part of <S|| Hso(L0) ||S'> = (-0.000000,-0.000135) (excluded from all matrix elements)
 L-/L+ Averaged reduced matrix elements:
 <S|| Hso(L-) ||S'> = (0.000496,0.000646)
 <S|| Hso(L+) ||S'> = (0.000496,-0.000646)

 SOCC = 0.001086


 Actual matrix elements:
       |Sz=-0.50>           |Sz=0.50>
 <Sz=-0.50|(0.000000,0.000385)(0.000405,-0.000528)
 <Sz=0.50|(-0.000405,-0.000528)(0.000000,-0.000385)
_______________________________

**************************************************

**************************************************
 State A: Root 0
 State B: Root 22


 Analysing Sz ans S^2 of the pair of states...
 Ket state:  Computed S^2 = 0.929849 will be treated as 0.750000 Sz = 0.500000
WARNING! The deviation of S^2 from the correct value is large, indicating a significant spin contamination. The results may be unreliable
 Bra state:  Computed S^2 = 1.187451 will be treated as 0.750000 Sz = 0.500000
 Clebsh-Gordan coefficient: <0.500,0.500;1.000,0.000|0.500,0.500> = 0.577

_______________________________
 One-electron SO (cm-1)
 Reduced matrix elements:
 <S|| Hso(L-) ||S'> = (-0.003534,-0.009539)
 <S|| Hso(L0) ||S'> = (0.000000,-0.383355)
 <S|| Hso(L+) ||S'> = (-0.003534,0.009539)

 SOCC = 0.313228


 Actual matrix elements:
       |Sz=-0.50>           |Sz=0.50>
 <Sz=-0.50|(0.000000,0.221330)(-0.002885,0.007788)
 <Sz=0.50|(0.002885,0.007788)(0.000000,-0.221330)
_______________________________
 Mean-field SO (cm-1)
 Reduced matrix elements:
 <S|| Hso(L-) ||S'> = (-0.001687,-0.004843)
 <S|| Hso(L0) ||S'> = (0.000000,-0.112948)
 <S|| Hso(L+) ||S'> = (-0.001665,0.004813)

 Singlet part of <S|| Hso(L0) ||S'> = (-0.000000,-0.024590) (excluded from all matrix elements)
 L-/L+ Averaged reduced matrix elements:
 <S|| Hso(L-) ||S'> = (-0.001676,-0.004828)
 <S|| Hso(L+) ||S'> = (-0.001676,0.004828)

 SOCC = 0.092410


 Actual matrix elements:
       |Sz=-0.50>           |Sz=0.50>
 <Sz=-0.50|(0.000000,0.065210)(-0.001368,0.003942)
 <Sz=0.50|(0.001368,0.003942)(0.000000,-0.065210)
_______________________________

**************************************************

**************************************************
 State A: Root 0
 State B: Root 23


 Analysing Sz ans S^2 of the pair of states...
 Ket state:  Computed S^2 = 0.929849 will be treated as 0.750000 Sz = 0.500000
WARNING! The deviation of S^2 from the correct value is large, indicating a significant spin contamination. The results may be unreliable
 Bra state:  Computed S^2 = 1.017487 will be treated as 0.750000 Sz = 0.500000
 Clebsh-Gordan coefficient: <0.500,0.500;1.000,0.000|0.500,0.500> = 0.577

_______________________________
 One-electron SO (cm-1)
 Reduced matrix elements:
 <S|| Hso(L-) ||S'> = (-0.384162,-2.892834)
 <S|| Hso(L0) ||S'> = (0.000000,-0.003658)
 <S|| Hso(L+) ||S'> = (-0.384162,2.892834)

 SOCC = 3.369683


 Actual matrix elements:
       |Sz=-0.50>           |Sz=0.50>
 <Sz=-0.50|(0.000000,0.002112)(-0.313667,2.361989)
 <Sz=0.50|(0.313667,2.361989)(0.000000,-0.002112)
_______________________________
 Mean-field SO (cm-1)
 Reduced matrix elements:
 <S|| Hso(L-) ||S'> = (-0.190679,-1.437220)
 <S|| Hso(L0) ||S'> = (0.000000,-0.001521)
 <S|| Hso(L+) ||S'> = (-0.189243,1.426378)

 Singlet part of <S|| Hso(L0) ||S'> = (0.000000,0.000094) (excluded from all matrix elements)
 L-/L+ Averaged reduced matrix elements:
 <S|| Hso(L-) ||S'> = (-0.189961,-1.431799)
 <S|| Hso(L+) ||S'> = (-0.189961,1.431799)

 SOCC = 1.667787


 Actual matrix elements:
       |Sz=-0.50>           |Sz=0.50>
 <Sz=-0.50|(0.000000,0.000878)(-0.155102,1.169059)
 <Sz=0.50|(0.155102,1.169059)(0.000000,-0.000878)
_______________________________

**************************************************

**************************************************
 State A: Root 0
 State B: Root 24


[...]
   30   32   0.005152  -0.001069  -0.000843    0.005328397
   30   33  -0.015779   0.001492   0.000609     0.01586129
   30   34   0.001562   0.015664   0.000328     0.01574541
   30   35  -0.000512   0.000609   0.001732    0.001905452
   30   36   0.000084   0.000167  -0.005753     0.00575578
   30   37  -0.000290   0.000185  -0.008930    0.008936994
   30   38  -0.000130   0.000423  -0.000309   0.0005401676
   30   39  -0.000463  -0.000073  -0.001193    0.001281587
   30   40   0.000310   0.000336   0.001305    0.001382999
   30   41  -0.012666   0.002099   0.000069     0.01283894
   30   42   0.002041   0.012686   0.001219     0.01290645
   30   43   0.000055  -0.000050   0.847626      0.8476259
   30   44  -0.000043   0.000213   0.020786     0.02078741
   30   45  -0.000250   0.000064   0.027051     0.02705217
   30   46   0.000015  -0.000005   0.006357    0.006357014
   30   47  -0.000258  -0.000050   1.582397       1.582397
   30   48   0.000068  -0.000060  -0.016733     0.01673289
   30   49   0.000126   0.000005  -0.011103     0.01110329
   30   50   0.000028   0.000007  -0.000934    0.000934063
   31   32   0.000148   0.000133  -2.855382       2.855382
   31   33  -0.000364   0.000270   0.502166      0.5021659
   31   34  -0.000142  -0.000207   0.060641     0.06064124
   31   35   0.000091   0.000008   0.002334    0.002335897
   31   36   0.004869   0.009328  -0.001993     0.01070951
   31   37   0.009416  -0.004720   0.001866     0.01069738
   31   38   0.000186   0.000119  -0.225057      0.2250575
   31   39   0.000350  -0.000413  -0.464127      0.4641273
   31   40   0.000033   0.000018  -0.000497   0.0004986769
   31   41  -0.000077   0.000059   0.309034      0.3090342
   31   42  -0.000104  -0.000028   0.014153     0.01415387
   31   43  -0.054613   0.011545   0.000109     0.05582032
   31   44  -0.004749  -0.008617   0.000017    0.009838658
   31   45  -0.008140   0.005499  -0.001708    0.009970529
   31   46   0.006256   0.029422  -0.000567     0.03008501
   31   47   0.026246  -0.005387  -0.000272     0.02679464
   31   48   0.022132   0.018534  -0.000206     0.02886791
   31   49   0.018247  -0.022197  -0.000203     0.02873509
   31   50   0.003647   0.017650  -0.000146     0.01802381
   32   33  -0.000126  -0.000185  -0.058879      0.0588794
   32   34   0.000285  -0.000271   0.531607      0.5316076
   32   35  -0.000011   0.000043   0.000885    0.000886582
   32   36  -0.009426   0.004661   0.004934     0.01161522
   32   37   0.004694   0.009109  -0.003520     0.01083476
   32   38  -0.000362   0.000396  -0.452502       0.452502
   32   39   0.000367   0.000041   0.222143      0.2221431
   32   40   0.000046   0.000017   0.002578    0.002578191
   32   41   0.000007  -0.000026  -0.012651     0.01265054
   32   42   0.000057   0.000026   0.317003      0.3170028
   32   43   0.011523   0.054071  -0.000196     0.05528583
   32   44   0.007751  -0.005744  -0.000985    0.009697262
   32   45  -0.005702  -0.009595   0.000272     0.01116509
   32   46   0.028585  -0.006077  -0.000676     0.02923202
   32   47  -0.005448  -0.024062  -0.000052     0.02467078
   32   48  -0.018948   0.022593  -0.000785     0.02949739
   32   49   0.022519   0.018448   0.000114     0.02911083
   32   50   0.017248  -0.003689  -0.000394     0.01764244
   33   34   0.000007   0.000032   0.037891     0.03789071
   33   35   0.000051  -0.000106   0.001902    0.001905694
   33   36  -0.009381   0.006283   0.004591     0.01218788
   33   37   0.006142   0.009586  -0.004700     0.01231692
   33   38   0.000065   0.000089  -1.079158       1.079158
   33   39  -0.000019  -0.000007   0.388876      0.3888757
   33   40  -0.000028   0.000001  -0.010177     0.01017683
   33   41  -0.000013  -0.000010  -0.027628     0.02762791
   33   42   0.000213   0.000013  -0.436525      0.4365251
   33   43   0.008937   0.088852   0.001214     0.08930847
   33   44   0.000662  -0.002370   0.000193    0.002468596
   33   45  -0.001089  -0.003056   0.000078    0.003245401
   33   46   0.026614  -0.002950   0.000567     0.02678305
   33   47  -0.007950  -0.077602  -0.000191     0.07800879
   33   48  -0.000064   0.000233   0.000712   0.0007517984
   33   49  -0.000093   0.000194  -0.000546   0.0005870593
   33   50  -0.006114   0.000644   0.000839    0.006204525
   34   35  -0.000353   0.000161  -0.002394    0.002424975
   34   36  -0.006107  -0.009450   0.004186     0.01200453
   34   37  -0.009210   0.006073   0.000863     0.01106515
   34   38   0.000147  -0.000079   0.385982      0.3859818
   34   39   0.000038  -0.000092   1.075869       1.075869
   34   40   0.000030   0.000079  -0.007074    0.007074854
   34   41   0.000256  -0.000263   0.445385      0.4453851
   34   42   0.000229   0.000016  -0.027428     0.02742903
   34   43   0.087766  -0.008898  -0.001124     0.08822271
   34   44  -0.000636   0.001447  -0.000142    0.001586817
   34   45  -0.000943  -0.000635  -0.000646    0.001307476
   34   46  -0.002875  -0.026286  -0.000469      0.0264467
   34   47  -0.077134   0.007912  -0.000017     0.07753832
   34   48   0.001311   0.000822   0.000541    0.001639825
   34   49   0.000775  -0.000898  -0.000050    0.001187369
   34   50   0.000746   0.006489   0.000864    0.006588574
   35   36  -0.114903   0.025586  -0.000477      0.1177178
   35   37  -0.025497  -0.114915   0.002051       0.117727
   35   38  -0.000265   0.000501   0.003215    0.003264493
   35   39   0.000537  -0.000398  -0.006054    0.006090274
   35   40   0.000196  -0.000364  -2.179810        2.17981
   35   41   0.000027   0.000504  -0.014718     0.01472687
   35   42   0.000333  -0.000140   0.032465     0.03246655
   35   43  -0.000201  -0.000181   0.000318   0.0004174969
   35   44   0.050555  -0.006099  -0.005424     0.05121009
   35   45   0.006354   0.051819  -0.004107     0.05236801
   35   46   0.000360  -0.000104  -0.001467    0.001514326
   35   47  -0.001452  -0.001639   0.000978    0.002398068
   35   48  -0.020684  -0.003351  -0.000174     0.02095403
   35   49   0.004315  -0.019270   0.000433     0.01975234
   35   50  -0.000656   0.000567  -0.000731    0.001133906
   36   37  -0.000326   0.000552  -0.017503     0.01751476
   36   38   0.003168   0.002469   0.005851    0.007096644
   36   39   0.002268  -0.003130   0.003943    0.005521265
   36   40  -0.008888  -0.039088   0.007936     0.04086394
   36   41   0.004220  -0.002791   0.003452    0.006124894
   36   42   0.002633   0.005197   0.001266    0.005962155
   36   43  -0.000360   0.000466   0.004160    0.004201869
   36   44  -0.000272  -0.000149   0.022264     0.02226582
   36   45  -0.000259  -0.000134   0.229318      0.2293183
   36   46   0.000049   0.000026  -0.000961   0.0009630506
   36   47   0.000082  -0.000186  -0.000206   0.0002891303
   36   48  -0.000019  -0.000166   0.029292     0.02929224
   36   49  -0.000181   0.000179   0.069034     0.06903462
   36   50  -0.000261  -0.000288   0.003275     0.00329752
   37   38   0.002354  -0.002959  -0.001898    0.004230433
   37   39  -0.002902  -0.002163  -0.004806    0.006016523
   37   40   0.039261  -0.008882   0.011074     0.04174913
   37   41  -0.002286  -0.004730  -0.001491    0.005461205
   37   42   0.003840  -0.002506  -0.001554    0.004841664
   37   43   0.000527   0.000209  -0.003451     0.00349747
   37   44  -0.000356   0.000166  -0.228153      0.2281535
   37   45   0.000126  -0.000154   0.023162     0.02316273
   37   46   0.000019  -0.000032  -0.005241    0.005241021
   37   47  -0.000182  -0.000198  -0.001458    0.001482757
   37   48   0.000149   0.000170  -0.061847     0.06184752
   37   49   0.000076   0.000085   0.027084     0.02708406
   37   50  -0.000013   0.000266   0.006153    0.006158913
   38   39   0.000106  -0.000085  -1.066365       1.066365
   38   40  -0.000235   0.000071   0.004040    0.004047619
   38   41   0.000206  -0.000127  -0.333300      0.3333004
   38   42   0.000089   0.000044   0.142301      0.1423011
   38   43   0.120194   0.030008  -0.000738      0.1238859
   38   44  -0.001090  -0.000002   0.001508    0.001860567
   38   45  -0.002201   0.000158   0.000832    0.002357804
   38   46   0.004389  -0.016868  -0.000781     0.01744759
   38   47  -0.055826  -0.014069  -0.001393     0.05758857
   38   48   0.030530   0.008031  -0.000606     0.03157407
   38   49   0.007680  -0.030415   0.000463     0.03137266
   38   50  -0.017230   0.069265  -0.000211     0.07137621
   39   40  -0.000019   0.000163   0.003347    0.003351495
   39   41  -0.000030   0.000104   0.143089       0.143089
   39   42  -0.000134   0.000150   0.332012      0.3320122
   39   43  -0.030202   0.119577  -0.000419      0.1233328
   39   44   0.000399  -0.001602   0.000451    0.001711037
   39   45   0.000928  -0.001296  -0.001129    0.001952869
   39   46   0.017249   0.003797  -0.000792     0.01768014
   39   47   0.013773  -0.056383   0.000758     0.05804578
   39   48   0.006877  -0.030036  -0.000100     0.03081338
   39   49  -0.030039  -0.006961   0.000485     0.03083909
   39   50  -0.068621  -0.017349   0.000183     0.07078082
   40   41  -0.000139   0.000124   0.006992     0.00699439
   40   42  -0.000039   0.000230   0.003344    0.003352478
   40   43   0.001690  -0.001194  -0.000586    0.002150316
   40   44   0.000124   0.002931   0.001796    0.003439577
   40   45  -0.004380   0.000438  -0.001511    0.004653923
   40   46  -0.000012  -0.000162   0.000181   0.0002435881
   40   47  -0.000809   0.000630  -0.001221    0.001594296
   40   48   0.003046  -0.016333   0.001186     0.01665681
   40   49   0.016223   0.003135  -0.001276     0.01657185
   40   50   0.000529   0.000698  -0.000290   0.0009228053
   41   42  -0.000058   0.000119  -0.553989      0.5539895
   41   43   0.015976   0.098147   0.001354     0.09944841
   41   44  -0.023007   0.015057  -0.002673     0.02762547
   41   45   0.015983   0.021361  -0.001412     0.02671563
   41   46  -0.007447   0.001239   0.000391    0.007559023
   41   47  -0.008284  -0.051796  -0.001497     0.05247538
   41   48  -0.001263   0.002450  -0.002315    0.003599713
   41   49   0.002514   0.002311   0.000178    0.003419292
   41   50  -0.036768   0.005912  -0.000577     0.03724494
   42   43   0.097233  -0.015814  -0.000063     0.09851073
   42   44  -0.017329  -0.022783   0.000693     0.02863328
   42   45  -0.024203   0.016405  -0.001810     0.02929422
   42   46   0.000897   0.006762  -0.001606    0.007007559
   42   47  -0.050250   0.008313  -0.000971     0.05094229
   42   48  -0.001847  -0.001124   0.000254    0.002176856
   42   49  -0.002053   0.002183  -0.000213    0.003004016
   42   50   0.005899   0.036705   0.000480     0.03717897
   43   44   0.000243  -0.000151  -0.001208    0.001241501
   43   45   0.000017   0.000322   0.003938    0.003950725
   43   46   0.000232   0.000072  -0.469999      0.4699991
   43   47   0.000077  -0.000064   0.001995    0.001997344
   43   48   0.000085  -0.000052   0.004800    0.004800608
   43   49  -0.000038   0.000143  -0.000602    0.000619558
   43   50  -0.000119  -0.000138   0.340915      0.3409147
   44   45  -0.000105   0.000080   0.839523      0.8395225
   44   46  -0.000094   0.000016   0.008071    0.008071444
   44   47  -0.000356   0.000166   0.001942    0.001981803
   44   48  -0.000025  -0.000015   0.242325       0.242325
   44   49  -0.000050  -0.000006   0.762102      0.7621022
   44   50   0.000013  -0.000245  -0.022511     0.02251229
   45   46  -0.000011   0.000083  -0.006452    0.006452296
   45   47   0.000043  -0.000136   0.005178    0.005179808
   45   48   0.000069  -0.000040  -0.756287      0.7562873
   45   49  -0.000046  -0.000024   0.239373      0.2393728
   45   50   0.000331  -0.000141  -0.024723     0.02472574
   46   47   0.000101   0.000057  -0.642496      0.6424962
   46   48   0.000086  -0.000154   0.003831    0.003834701
   46   49   0.000151  -0.000059   0.004068    0.004071109
   46   50   0.000044  -0.000049  -0.004124    0.004124894
   47   48   0.000177  -0.000035   0.000234   0.0002954498
   47   49  -0.000076   0.000122  -0.012747     0.01274791
   47   50   0.000066   0.000060  -1.316762       1.316762
   48   49  -0.000032  -0.000006  -0.617519       0.617519
   48   50   0.000021  -0.000062   0.008747    0.008747628
   49   50   0.000056   0.000000   0.004886    0.004886348
 --------------------------------------------------------------------------------

                    END OF TRANSITION MOMENT CALCULATION

 
 --------------------------------------------------------------
 
                    Orbital Energies (a.u.)
 --------------------------------------------------------------
 
 Alpha MOs
 -- Occupied --
-10.5970 -10.5961 -10.5961 -10.5958 -10.5940 -10.5940 -10.5939 -10.5939
-10.5938 -10.5938 -10.5897 -10.5897 -10.5897  -1.0170  -0.9524  -0.9523
 -0.8675  -0.8675  -0.8561  -0.7808  -0.7204  -0.7083  -0.7082  -0.6032
 -0.6032  -0.5889  -0.5889  -0.5519  -0.5048  -0.5047  -0.4984  -0.4786
 -0.4774  -0.4571  -0.4571  -0.4457  -0.4048  -0.4048  -0.3934  -0.3933
 -0.3106  -0.3106  -0.2941  -0.2080
 -- Virtual --
  0.0283   0.0290   0.0291   0.0968   0.1168   0.1168   0.1412   0.1412
  0.1527   0.1527   0.1611   0.1853   0.2016   0.2016   0.2858   0.2907
  0.3032   0.3032   0.3397   0.3398   0.3658   0.3658   0.3661   0.3783
  0.4589   0.4589   0.5055   0.5111   0.5278   0.5349   0.5350   0.5376
  0.5377   0.5475   0.5506   0.5507   0.5859   0.5860   0.5922   0.5934
  0.5935   0.6027   0.6090   0.6139   0.6139   0.6179   0.6318   0.6319
  0.6540   0.6552   0.7029   0.7029   0.7290   0.7290   0.7403   0.7444
  0.7628   0.7629   0.7677   0.7678   0.8088   0.8314   0.8314   0.8930
  0.9154   0.9155   0.9291   0.9291   0.9432   0.9823   0.9823   0.9968
  1.0075   1.0126   1.0223   1.0263   1.0263   1.0386   1.0543   1.0545
  1.0798   1.0799   1.0995   1.1157   1.1157   1.1410   1.1411   1.1753
  1.1754   1.1934   1.2062   1.2063   1.2398   1.2778   1.4060   1.4061
  1.4147   1.4741   1.4741   1.4793   1.4849   1.4849   1.5468   1.5474
  1.5474   1.5542   1.5846   1.5846   1.6239   1.6240   1.6291   1.6796
  1.6951   1.7109   1.7111   1.7218   1.7278   1.7282   1.7433   1.7466
  1.7700   1.7702   1.7719   1.7719   1.8082   1.8083   1.8504   1.8506
  1.8864   1.8961   1.8961   1.9001   1.9074   1.9075   1.9308   1.9382
  1.9549   1.9551   1.9599   1.9600   1.9656   1.9835   2.0031   2.0032
  2.0058   2.1029   2.1030   2.1755   2.1756   2.1970   2.1998   2.2053
  2.2098   2.2226   2.2228   2.2518   2.2520   2.3520   2.3522   2.3556
  2.4703   2.4714   2.4715   2.5157   2.5158   2.6116   2.6346   2.6347
  2.6966   2.7177   2.7178   2.8205   2.8207   2.8343   2.9018   2.9097
  2.9712   2.9715   3.0260   3.0262   3.5111   3.6871   3.6874
 
 Beta MOs
 -- Occupied --
-10.5997 -10.5997 -10.5997 -10.5939 -10.5936 -10.5936 -10.5936 -10.5877
-10.5877 -10.5877 -10.5876 -10.5876 -10.5876  -1.0142  -0.9472  -0.9471
 -0.8614  -0.8613  -0.8551  -0.7614  -0.7192  -0.7057  -0.7057  -0.5984
 -0.5984  -0.5879  -0.5879  -0.5499  -0.5030  -0.5030  -0.4955  -0.4783
 -0.4685  -0.4553  -0.4553  -0.4428  -0.3922  -0.3920  -0.3872  -0.3872
 -0.2927  -0.2855  -0.2855
 -- Virtual --
 -0.0529   0.0298   0.0485   0.0485   0.0981   0.1177   0.1177   0.1426
  0.1427   0.1612   0.1670   0.1671   0.1879   0.2034   0.2034   0.2850
  0.2948   0.3048   0.3049   0.3414   0.3414   0.3659   0.3665   0.3666
  0.3800   0.4611   0.4611   0.5142   0.5234   0.5338   0.5429   0.5429
  0.5461   0.5484   0.5485   0.5502   0.5502   0.5915   0.5958   0.5959
  0.5994   0.5995   0.6028   0.6146   0.6147   0.6161   0.6169   0.6348
  0.6348   0.6557   0.6799   0.7032   0.7032   0.7302   0.7303   0.7425
  0.7445   0.7646   0.7647   0.7710   0.7710   0.8119   0.8349   0.8349
  0.8939   0.9202   0.9203   0.9304   0.9304   0.9465   0.9819   0.9819
  0.9949   1.0130   1.0146   1.0234   1.0326   1.0326   1.0476   1.0548
  1.0549   1.0826   1.0827   1.1114   1.1194   1.1195   1.1424   1.1425
  1.1812   1.1813   1.1941   1.2094   1.2095   1.2423   1.2818   1.4067
  1.4067   1.4159   1.4775   1.4776   1.4827   1.4916   1.4917   1.5483
  1.5483   1.5507   1.5575   1.5873   1.5874   1.6238   1.6239   1.6312
  1.6800   1.6959   1.7135   1.7137   1.7243   1.7319   1.7323   1.7446
  1.7456   1.7712   1.7713   1.7758   1.7759   1.8098   1.8099   1.8515
  1.8516   1.8862   1.8977   1.8978   1.9013   1.9093   1.9094   1.9355
  1.9404   1.9589   1.9591   1.9663   1.9664   1.9721   1.9808   2.0024
  2.0024   2.0096   2.1041   2.1041   2.1810   2.1811   2.2031   2.2032
  2.2118   2.2138   2.2265   2.2267   2.2549   2.2551   2.3532   2.3535
  2.3574   2.4723   2.4748   2.4750   2.5167   2.5168   2.6120   2.6344
  2.6345   2.6997   2.7180   2.7181   2.8216   2.8218   2.8353   2.9032
  2.9105   2.9716   2.9719   3.0274   3.0277   3.5118   3.6884   3.6886
 --------------------------------------------------------------
 
          Ground-State Mulliken Net Atomic Charges

     Atom                 Charge (a.u.)    Spin (a.u.)
  --------------------------------------------------------
      1 C                     0.040693      -0.241513
      2 C                     0.013531       0.381304
      3 C                    -0.032505      -0.215546
      4 C                     0.028815       0.152830
      5 C                    -0.032770      -0.215419
      6 C                     0.013973       0.380956
      7 H                    -0.020064      -0.016612
      8 C                     0.014160       0.382101
      9 C                     0.040091      -0.241957
     10 C                     0.014289       0.382508
     11 C                    -0.032494      -0.215731
     12 C                     0.014245       0.381904
     13 C                     0.040058      -0.241748
     14 C                     0.014036       0.381393
     15 H                    -0.005198       0.009567
     16 H                    -0.020113      -0.016623
     17 H                    -0.020142      -0.016657
     18 H                    -0.004956       0.009594
     19 H                    -0.020271      -0.016664
     20 H                    -0.020060      -0.016632
     21 H                    -0.020302      -0.016636
     22 H                    -0.005013       0.009583
  --------------------------------------------------------
  Sum of atomic charges =    -0.000000
  Sum of spin   charges =     1.000000

 -----------------------------------------------------------------
                    Cartesian Multipole Moments
 -----------------------------------------------------------------
    Charge (ESU x 10^10)
                 0.0000
    Dipole Moment (Debye)
         X       0.0001      Y      -0.0001      Z       0.0013
       Tot       0.0013
    Quadrupole Moments (Debye-Ang)
        XX     -65.4436     XY       0.0014     YY     -65.4286
        XZ       0.0049     YZ      -0.0010     ZZ     -80.9178
    Octopole Moments (Debye-Ang^2)
       XXX       0.3320    XXY      -0.3943    XYY      -0.3310
       YYY       0.3837    XXZ       0.0277    XYZ      -0.0165
       YYZ       0.0085    XZZ      -0.0003    YZZ       0.0012
       ZZZ       0.0012
    Hexadecapole Moments (Debye-Ang^3)
      XXXX   -1208.5744   XXXY      -0.0201   XXYY    -402.8214
      XYYY       0.0522   YYYY   -1208.1920   XXXZ       0.0262
      XXYZ       0.0234   XYYZ       0.0348   YYYZ      -0.0499
      XXZZ    -261.9237   XYZZ      -0.0015   YYZZ    -261.8828
      XZZZ       0.0062   YZZZ      -0.0010   ZZZZ     -90.0263
 -----------------------------------------------------------------
 Total job time:  2466.47s(wall), 2420.27s(cpu) 
 Thu Apr 18 19:03:10 2024

        *************************************************************
        *                                                           *
        *  Thank you very much for using Q-Chem.  Have a nice day.  *
        *                                                           *
        *************************************************************


