
                                 *****************
                                 * O   R   C   A *
                                 *****************

                                            #,                                       
                                            ###                                      
                                            ####                                     
                                            #####                                    
                                            ######                                   
                                           ########,                                 
                                     ,,################,,,,,                         
                               ,,#################################,,                 
                          ,,##########################################,,             
                       ,#########################################, ''#####,          
                    ,#############################################,,   '####,        
                  ,##################################################,,,,####,       
                ,###########''''           ''''###############################       
              ,#####''   ,,,,##########,,,,          '''####'''          '####       
            ,##' ,,,,###########################,,,                        '##       
           ' ,,###''''                  '''############,,,                           
         ,,##''                                '''############,,,,        ,,,,,,###''
      ,#''                                            '''#######################'''  
     '                                                          ''''####''''         
             ,#######,   #######,   ,#######,      ##                                
            ,#'     '#,  ##    ##  ,#'     '#,    #''#        ,####,   ,####,        
            ##       ##  ##   ,#'  ##            #'  '#       #'       #'  '#        
            ##       ##  #######   ##           ,######,      #####,   #    #        
            '#,     ,#'  ##    ##  '#,     ,#' ,#      #,     #,   #   #,  ,#        
             '#######'   ##     ##  '#######'  #'      '#     '####' # '####'        



                #########################################################
                #                        -***-                          #
                #          Department of theory and spectroscopy        #
                #                                                       #
                #                      Frank Neese                      #
                #                                                       #
                #     Directorship, Architecture, Infrastructure        #
                #                    SHARK, DRIVERS                     #
                #        Core code/Algorithms in most modules           #
                #                                                       #
                #        Max Planck Institute fuer Kohlenforschung      #
                #                Kaiser Wilhelm Platz 1                 #
                #                 D-45470 Muelheim/Ruhr                 #
                #                      Germany                          #
                #                                                       #
                #                  All rights reserved                  #
                #                        -***-                          #
                #########################################################


                         Program Version 6.0.0  -   RELEASE  -


 With contributions from (in alphabetic order):
   Daniel Aravena         : Magnetic Suceptibility
   Michael Atanasov       : Ab Initio Ligand Field Theory (pilot matlab implementation)
   Alexander A. Auer      : GIAO ZORA, VPT2 properties, NMR spectrum
   Ute Becker             : All parallelization in ORCA, NUMFREQ, NUMCALC
   Giovanni Bistoni       : ED, misc. LED, open-shell LED, HFLD
   Martin Brehm           : Molecular dynamics
   Dmytro Bykov           : pre 5.0 version of the SCF Hessian
   Marcos Casanova-Páez   : Triplet and SCS-CIS(D). UHF-(DLPNO)-IP/EA/STEOM-CCSD. UHF-CVS-IP/STEOM-CCSD
   Vijay G. Chilkuri      : MRCI spin determinant printing, contributions to CSF-ICE
   Pauline Colinet        : FMM embedding
   Dipayan Datta          : RHF DLPNO-CCSD density
   Achintya Kumar Dutta   : EOM-CC, STEOM-CC
   Nicolas Foglia         : Exact transition moments, OPA infrastructure, MCD improvements
   Dmitry Ganyushin       : Spin-Orbit,Spin-Spin,Magnetic field MRCI
   Miquel Garcia          : C-PCM and meta-GGA Hessian, CCSD/C-PCM, Gaussian charge scheme
   Tiago L. C. Gouveia    : GS-ROHF, GS-ROCIS
   Yang Guo               : DLPNO-NEVPT2, F12-NEVPT2, CIM, IAO-localization
   Andreas Hansen         : Spin unrestricted coupled pair/coupled cluster methods
   Ingolf Harden          : AUTO-CI MPn and infrastructure 
   Benjamin Helmich-Paris : MC-RPA, TRAH-(SCF,CASSCF), AVAS, COSX integrals, SCF dyn. polar.
   Lee Huntington         : MR-EOM, pCC
   Robert Izsak           : Overlap fitted RIJCOSX, COSX-SCS-MP3, EOM
   Riya Kayal             : Wick's Theorem for AUTO-CI, AUTO-CI UHF-CCSDT
   Emily Kempfer          : AUTO-CI, RHF CISDT and CCSDT
   Christian Kollmar      : KDIIS, OOCD, Brueckner-CCSD(T), CCSD density, CASPT2, CASPT2-K, improved NEVPT2
   Axel Koslowski         : Symmetry handling
   Simone Kossmann        : Meta GGA functionals, TD-DFT gradient, OOMP2, (MP2 Hessian; deprecated post 5.0)
   Lucas Lang             : DCDCAS
   Marvin Lechner         : AUTO-CI (C++ implementation), FIC-MRCC
   Spencer Leger          : CASSCF response
   Dagmar Lenk            : GEPOL surface, SMD, ORCA-2-JSON
   Dimitrios Liakos       : Extrapolation schemes; Compound Job, initial MDCI parallelization
   Dimitrios Manganas     : Further ROCIS development; embedding schemes. LFT, Crystal Embedding
   Dimitrios Pantazis     : SARC Basis sets
   Anastasios Papadopoulos: AUTO-CI, single reference methods and gradients
   Taras Petrenko         : pre 6.0 DFT Hessian and TD-DFT gradient, (ASA, deprecated), ECA, 1-Electron XAS/XES, NRVS
   Peter Pinski           : DLPNO-MP2, DLPNO-MP2 Gradient
   Christoph Reimann      : Effective Core Potentials
   Marius Retegan         : Local ZFS, SOC
   Christoph Riplinger    : Optimizer, TS searches, QM/MM, DLPNO-CCSD(T), (RO)-DLPNO pert. Triples
   Michael Roemelt        : Original ROCIS implementation
   Masaaki Saitow         : Open-shell DLPNO-CCSD energy and density
   Barbara Sandhoefer     : DKH picture change effects
   Kantharuban Sivalingam : CASSCF convergence/infrastructure, NEVPT2 and variants, FIC-MRCI
   Bernardo de Souza      : ESD, SOC TD-DFT
   Georgi Stoychev        : AutoAux, RI-MP2 NMR, DLPNO-MP2 response, X2C
   Van Anh Tran           : RI-MP2 g-tensors
   Willem Van den Heuvel  : Paramagnetic NMR
   Zikuan Wang            : NOTCH, Electric field optimization 
   Frank Wennmohs         : Technical directorship and infrastructure
   Hang Xu                : AUTO-CI-Response properties 


 We gratefully acknowledge several colleagues who have allowed us to
 interface, adapt or use parts of their codes:
   Stefan Grimme, W. Hujo, H. Kruse, P. Pracht,  : VdW corrections, initial TS optimization,
                  C. Bannwarth, S. Ehlert,         DFT functionals, gCP, sTDA/sTD-DF
                  L. Wittmann, M. Mueller
   Ed Valeev, F. Pavosevic, A. Kumar             : LibInt (2-el integral package), F12 methods
   Garnet Chan, S. Sharma, J. Yang, R. Olivares  : DMRG
   Ulf Ekstrom                                   : XCFun DFT Library
   Mihaly Kallay                                 : mrcc  (arbitrary order and MRCC methods)
   Frank Weinhold                                : gennbo (NPA and NBO analysis)
   Simon Mueller                                 : openCOSMO-RS
   Christopher J. Cramer and Donald G. Truhlar   : smd solvation model
   Lars Goerigk                                  : TD-DFT with DH, B97 family of functionals
   V. Asgeirsson, H. Jonsson                     : NEB implementation
   FAccTs GmbH                                   : IRC, NEB, NEB-TS, DLPNO-Multilevel, CI-OPT
                                                   MM, QMMM, 2- and 3-layer-ONIOM, Crystal-QMMM,
                                                   LR-CPCM, SF, NACMEs, symmetry and pop. for TD-DFT,
                                                   nearIR, NL-DFT gradient (VV10), updates on ESD,
                                                   ML-optimized integration grids, MBIS, APM,
                                                   GOAT, DOCKER, SOLVATOR, interface openCOSMO-RS
   S Lehtola, MJT Oliveira, MAL Marques          : LibXC Library
   Liviu Ungur et al                             : ANISO software


 Your calculation uses the libint2 library for the computation of 2-el integrals
 For citations please refer to: http://libint.valeyev.net

 Your ORCA version has been built with support for libXC version: 6.2.2
 For citations please refer to: https://libxc.gitlab.io

 This ORCA versions uses:
   CBLAS   interface :  Fast vector & matrix operations
   LAPACKE interface :  Fast linear algebra routines
   SCALAPACK package :  Parallel linear algebra routines
   Shared memory     :  Shared parallel matrices
   BLAS/LAPACK       :  OpenBLAS 0.3.27  USE64BITINT DYNAMIC_ARCH NO_AFFINITY SkylakeX SINGLE_THREADED
        Core in use  :  SkylakeX
   Copyright (c) 2011-2014, The OpenBLAS Project




************************************
The Z-Matrix will be read from file: co2-.gzmt
************************************


================================================================================

----- Orbital basis set information -----
Your calculation utilizes the basis: def2-TZVP
   F. Weigend and R. Ahlrichs, Phys. Chem. Chem. Phys. 7, 3297 (2005).

================================================================================
                                        WARNINGS
                       Please study these warnings very carefully!
================================================================================


WARNING: your system is open-shell and RHF/RKS was chosen
  ===> : WILL SWITCH to UHF/UKS


================================================================================
                                       INPUT FILE
================================================================================
NAME = co2-_cpks_B3LYP_VWN3_noRI.inp
|  1> !B3LYP def2-TZVP SOMF(1X) FrozenCore MINIPRINT 
|  2> 
|  3> %METHOD
|  4> Functional B3LYP_G
|  5> RI false
|  6> END
|  7> 
|  8> %EPRNMR 			# Control of EPR and NMR calculations
|  9>  gtensor 1			# Calculate the g-tensor 
| 10>  ori CenterOfNucCharge		# origin for magnetic properties: CenterOfElCharge, CenterOfNucCharge
| 11>  printlevel 4			# detailed information
| 12> END
| 13> 
| 14> * gzmtfile -1 2 co2-.gzmt 	# Coordinates
| 15> 
| 16> 
| 17>                          ****END OF INPUT****
================================================================================

                       ****************************
                       * Single Point Calculation *
                       ****************************

---------------------------------
CARTESIAN COORDINATES (ANGSTROEM)
---------------------------------
  C      0.000000    0.000000    0.000000
  O      1.253500    0.000000    0.000000
  O     -0.868864    0.903514    0.000000

----------------------------
CARTESIAN COORDINATES (A.U.)
----------------------------
  NO LB      ZA    FRAG     MASS         X           Y           Z
   0 C     6.0000    0    12.011    0.000000    0.000000    0.000000
   1 O     8.0000    0    15.999    2.368772    0.000000    0.000000
   2 O     8.0000    0    15.999   -1.641915    1.707394    0.000000

------------------------------------------------------------------------------
                   ___                                                        
                  /   \      - P O W E R E D   B Y -                         
                 /     \                                                     
                 |  |  |   _    _      __       _____    __    __             
                 |  |  |  | |  | |    /  \     |  _  \  |  |  /  |          
                  \  \/   | |  | |   /    \    | | | |  |  | /  /          
                 / \  \   | |__| |  /  /\  \   | |_| |  |  |/  /          
                |  |  |   |  __  | /  /__\  \  |    /   |      \           
                |  |  |   | |  | | |   __   |  |    \   |  |\   \          
                \     /   | |  | | |  |  |  |  | |\  \  |  | \   \       
                 \___/    |_|  |_| |__|  |__|  |_| \__\ |__|  \__/        
                                                                              
                      - O R C A' S   B I G   F R I E N D -                    
                                      &                                       
                       - I N T E G R A L  F E E D E R -                       
                                                                              
 v1 FN, 2020, v2 2021, v3 2022-2024                                           
------------------------------------------------------------------------------


----------------------
SHARK INTEGRAL PACKAGE
----------------------

Number of atoms                             ...      3
Number of basis functions                   ...     93
Number of shells                            ...     33
Maximum angular momentum                    ...      3
Integral batch strategy                     ... SHARK/LIBINT Hybrid
RI-J (if used) integral strategy            ... SPLIT-RIJ (Revised 2003 algorithm where possible)
Printlevel                                  ...      1
Contraction scheme used                     ... SEGMENTED contraction
Prescreening option                         ... SCHWARTZ
   Thresh                                   ... 1.000e-10
   Tcut                                     ... 1.000e-11
   Tpresel                                  ... 1.000e-11 
Coulomb Range Separation                    ... NOT USED
Exchange Range Separation                   ... NOT USED
Multipole approximations                    ... NOT USED
Finite Nucleus Model                        ... NOT USED
CABS basis                                  ... NOT available
Auxiliary Coulomb fitting basis             ... NOT available
Auxiliary J/K fitting basis                 ... NOT available
Auxiliary Correlation fitting basis         ... NOT available
Auxiliary 'external' fitting basis          ... NOT available

Checking pre-screening integrals            ... done (  0.0 sec) Dimension = 33
Check shell pair data                       ... done (  0.0 sec)
Shell pair information
Shell pair cut-off parameter TPreSel        ...   1.0e-11
Total number of shell pairs                 ...       561
Shell pairs after pre-screening             ...       549
Total number of primitive shell pairs       ...      1896
Primitive shell pairs kept                  ...      1587
          la=0 lb=0:    114 shell pairs
          la=1 lb=0:    133 shell pairs
          la=1 lb=1:     45 shell pairs
          la=2 lb=0:     86 shell pairs
          la=2 lb=1:     54 shell pairs
          la=2 lb=2:     21 shell pairs
          la=3 lb=0:     45 shell pairs
          la=3 lb=1:     27 shell pairs
          la=3 lb=2:     18 shell pairs
          la=3 lb=3:      6 shell pairs

Calculating one electron integrals          ... done (  0.0 sec)
Calculating Nuclear repulsion               ... done (  0.0 sec) ENN=     55.209630475156 Eh

Diagonalization of the overlap matrix:
Smallest eigenvalue                        ... 1.350e-03
Time for diagonalization                   ...    0.002 sec
Threshold for overlap eigenvalues          ... 1.000e-07
Number of eigenvalues below threshold      ... 0
Time for construction of square roots      ...    0.014 sec
Total time needed                          ...    0.019 sec

-------------------
DFT GRID GENERATION
-------------------

General Integration Accuracy     IntAcc      ... 4.388
Radial Grid Type                 RadialGrid  ... OptM3 with GC (2021)
Angular Grid (max. ang.)         AngularGrid ... 4 (Lebedev-302)
Angular grid pruning method      GridPruning ... 4 (adaptive)
Weight generation scheme         WeightScheme... mBecke (2022)
Basis function cutoff            BFCut       ... 1.0000e-10
Integration weight cutoff        WCut        ... 1.0000e-14
Partially contracted basis set               ... off
Rotationally invariant grid construction     ... off
Angular grids for H and He will be reduced by one unit

Total number of grid points                  ...    18375
Total number of batches                      ...      289
Average number of points per batch           ...       63
Average number of grid points per atom       ...     6125
Initializing property integral containers    ... done (  0.0 sec)

SHARK setup successfully completed in   0.2 seconds

Maximum memory used throughout the entire STARTUP-calculation: 12.4 MB
Loading Hartree-Fock densities                     ... done
Calculating cut-offs                               ... done
Initializing the effective Hamiltonian             ... done
Setting up the integral package (SHARK)            ... done
Starting the Coulomb interaction                   ... done (   0.0 sec)
Making the grid                                    ... done (   0.0 sec)
Mapping shells                                     ... done
Starting the XC term evaluation                    ... done (   0.0 sec)
  promolecular density results
     # of electrons  =     22.000035743
     EX              =    -21.426618047
     EC              =     -0.781598805
     EX+EC           =    -22.208216853
Transforming the Hamiltonian                       ... done (   0.0 sec)
Diagonalizing the Hamiltonian                      ... done (   0.0 sec)
Back transforming the eigenvectors                 ... done (   0.0 sec)
Now organizing SCF variables                       ... done
             **** ENERGY FILE WAS UPDATED (co2-_cpks_B3LYP_VWN3_noRI.en.tmp) ****
Finished Guess after   0.2 sec
Maximum memory used throughout the entire GUESS-calculation: 7.5 MB
----------------------------------------D-I-I-S--------------------------------------------
Iteration    Energy (Eh)           Delta-E    RMSDP     MaxDP     DIISErr   Damp  Time(sec)
-------------------------------------------------------------------------------------------
               ***  Starting incremental Fock matrix formation  ***
    1    -188.4603318308956830     0.00e+00  2.72e-03  1.10e-01  1.61e-01  0.700   0.6
    2    -188.5527585187587363    -9.24e-02  2.30e-03  1.15e-01  6.50e-02  0.700   0.5
                               ***Turning on AO-DIIS***
    3    -188.5804002871195166    -2.76e-02  1.27e-03  7.32e-02  1.40e-02  0.700   0.6
    4    -188.5990734281521100    -1.87e-02  2.02e-03  1.24e-01  8.83e-03  0.000   0.5
    5    -188.6436514255499617    -4.46e-02  5.88e-04  3.01e-02  6.63e-03  0.000   0.5
                              *** Initializing SOSCF ***
---------------------------------------S-O-S-C-F--------------------------------------
Iteration    Energy (Eh)           Delta-E    RMSDP     MaxDP     MaxGrad    Time(sec)
--------------------------------------------------------------------------------------
    6    -188.6440143942188286    -3.63e-04  2.30e-04  1.18e-02  1.16e-03     0.6
               *** Restarting incremental Fock matrix formation ***
    7    -188.6440343239401898    -1.99e-05  2.04e-04  1.16e-02  5.85e-04     0.5
    8    -188.6440378590041860    -3.54e-06  6.07e-05  3.57e-03  1.34e-04     0.5
    9    -188.6440377378966105     1.21e-07  1.67e-05  8.90e-04  2.19e-04     0.5
                 **** Energy Check signals convergence ****

               *****************************************************
               *                     SUCCESS                       *
               *           SCF CONVERGED AFTER   9 CYCLES          *
               *****************************************************

             **** ENERGY FILE WAS UPDATED (co2-_cpks_B3LYP_VWN3_noRI.en.tmp) ****

----------------
TOTAL SCF ENERGY
----------------

Total Energy       :       -188.64403773789661 Eh           -5133.26524 eV

Components:
Nuclear Repulsion  :         55.20963047515633 Eh            1502.33042 eV
Electronic Energy  :       -243.85366821305294 Eh           -6635.59566 eV
One Electron Energy:       -373.97760459069582 Eh          -10176.44798 eV
Two Electron Energy:        130.12393637764288 Eh            3540.85232 eV

Virial components:
Potential Energy   :       -376.49634740414660 Eh          -10244.98646 eV
Kinetic Energy     :        187.85230966624999 Eh            5111.72122 eV
Virial Ratio       :          2.00421463048846

DFT components:
N(Alpha)           :       12.000034737648 electrons
N(Beta)            :       11.000001249012 electrons
N(Total)           :       23.000035986659 electrons
E(X)               :      -17.384711509581 Eh       
E(C)               :       -1.039614006203 Eh       
E(XC)              :      -18.424325515783 Eh       

---------------
SCF CONVERGENCE
---------------

  Last Energy change         ...   -1.2111e-07  Tolerance :   1.0000e-06
  Last MAX-Density change    ...    8.9004e-04  Tolerance :   1.0000e-05
  Last RMS-Density change    ...    1.6673e-05  Tolerance :   1.0000e-06
  Last DIIS Error            ...    1.1564e-03  Tolerance :   1.0000e-06
  Last Orbital Gradient      ...    2.1887e-04  Tolerance :   5.0000e-05
  Last Orbital Rotation      ...    1.5424e-04  Tolerance :   5.0000e-05


----------------------
UHF SPIN CONTAMINATION
----------------------

Warning: in a DFT calculation there is little theoretical justification to 
         calculate <S**2> as in Hartree-Fock theory. We will do it anyways
         but you should keep in mind that the values have only limited relevance

Expectation value of <S**2>     :     0.753353
Ideal value S*(S+1) for S=0.5   :     0.750000
Deviation                       :     0.003353

----------------
ORBITAL ENERGIES
----------------
                 SPIN UP ORBITALS
  NO   OCC          E(Eh)            E(eV) 
   0   1.0000     -18.881431      -513.7899 
   1   1.0000     -18.881422      -513.7896 
   2   1.0000     -10.034113      -273.0421 
   3   1.0000      -0.817703       -22.2508 
   4   1.0000      -0.746970       -20.3261 
   5   1.0000      -0.282916        -7.6985 
   6   1.0000      -0.212253        -5.7757 
   7   1.0000      -0.193375        -5.2620 
   8   1.0000      -0.183647        -4.9973 
   9   1.0000      -0.061388        -1.6705 
  10   1.0000      -0.058620        -1.5951 
  11   1.0000       0.058126         1.5817 
  12   0.0000       0.261790         7.1237 
  13   0.0000       0.332210         9.0399 
  14   0.0000       0.366530         9.9738 
  15   0.0000       0.393638        10.7114 
  16   0.0000       0.419835        11.4243 
  17   0.0000       0.572695        15.5838 
  18   0.0000       0.609539        16.5864 
  19   0.0000       0.630244        17.1498 
  20   0.0000       0.681808        18.5529 
  21   0.0000       0.731842        19.9144 
  22   0.0000       0.740088        20.1388 

                 SPIN DOWN ORBITALS
  NO   OCC          E(Eh)            E(eV) 
   0   1.0000     -18.875095      -513.6174 
   1   1.0000     -18.875082      -513.6171 
   2   1.0000     -10.025303      -272.8024 
   3   1.0000      -0.802719       -21.8431 
   4   1.0000      -0.731107       -19.8944 
   5   1.0000      -0.264298        -7.1919 
   6   1.0000      -0.196738        -5.3535 
   7   1.0000      -0.175381        -4.7724 
   8   1.0000      -0.155626        -4.2348 
   9   1.0000      -0.057469        -1.5638 
  10   1.0000      -0.036298        -0.9877 
  11   0.0000       0.178865         4.8672 
  12   0.0000       0.280444         7.6313 
  13   0.0000       0.345489         9.4012 
  14   0.0000       0.370755        10.0888 
  15   0.0000       0.420020        11.4293 
  16   0.0000       0.427446        11.6314 
  17   0.0000       0.578131        15.7317 
  18   0.0000       0.612674        16.6717 
  19   0.0000       0.641065        17.4443 
  20   0.0000       0.683129        18.5889 
  21   0.0000       0.740085        20.1387 
*Only the first 10 virtual orbitals were printed.
Total SCF time: 0 days 0 hours 0 min 5 sec 
Finished LeanSCF after   5.0 sec

Maximum memory used throughout the entire LEANSCF-calculation: 13.5 MB

------------------------------------------------------------------------------
                         ORCA PROPERTY INTEGRAL CALCULATIONS
------------------------------------------------------------------------------

GBWName                                   ... co2-_cpks_B3LYP_VWN3_noRI.gbw
Number of atoms                           ...      3
Number of basis functions                 ...     93
Max core memory                           ...   1024 MB

Dipole integrals                          ... YES
Quadrupole integrals                      ...  NO
Linear momentum integrals                 ...  NO
Angular momentum integrals                ... YES
Higher moments length integrals           ...  NO
Higher moments velocity integrals         ...  NO
Kinetic energy integrals                  ... YES
GIAO right hand sides                     ...  NO
GIAO dipole derivative integrals          ...  NO
SOC integrals                             ... YES
EPR diamagnetic integrals (GIAO)          ...  NO
EPR gauge integrals                       ... YES
Field gradient integrals                  ...  NO (   0 nuclei)
Spin-dipole/Fermi contact integrals       ...  NO (   0 nuclei)
Contact density integrals                 ...  NO (   0 nuclei)
Nucleus-orbit integrals                   ...  NO (   0 nuclei)
Geometric perturbations                   ...  NO (   3 nuclei)

Choice of electric origin   ... Center of mass
Position of electric origin ... (  0.2642,  0.6207,  0.0000) 
Choice of magnetic origin   ... Center of nuclear charge
Position of magnetic origin ... (  0.2643,  0.6209,  0.0000) 

Calculating integrals                     ... Electric Dipole (Length)     done (  0.0 sec)
Calculating integrals                     ... Kinetic Energy               done (  0.0 sec)
Calculating integrals                     ... Angular Momentum  (MagOri)   done (  0.0 sec)
Calculating integrals                     ... EPR-gauge integrals          done (  0.0 sec)
  g-Tensor DSO: Zeff (2-electron approx.) ... YES 
Calculating integrals                     ... Spin-Orbit Coupling
  Spin-orbit operator                     ... Spin-Orbit Mean-Field (SOMF)
      1-El-Flag                           ...  1 ON
      Coulomb-Flag                        ...  2 ON (Via COSJ)
      Exchange-Flag                       ...  3 ON (AMFI type)
      DFT-Correlation Flag                ...  0 OFF
      Max-Center                          ...  4   
      Relativistic Picture Change         ... OFF     
  Electron density on the grid            ... done (%5.1 lf sec) NEL=     0.027953000
  SOC Coulomb terms                       ... done (%5.1 lf sec)
  One-electron part                       ... done (  0.0 sec)
  Two-electron DoJ,X=0,1 MaxCenter=1      ... done (  0.3 sec)
  SOC integrals done (  3.1 sec)

Property integrals calculated in   3.1 sec

Maximum memory used throughout the entire PROPINT-calculation: 14.1 MB

-------------------------   --------------------
FINAL SINGLE POINT ENERGY      -188.644037737897
-------------------------   --------------------

------------------------------------------------------------------------------
                            ORCA SCF RESPONSE CALCULATION
------------------------------------------------------------------------------

GBWName                                 ... co2-_cpks_B3LYP_VWN3_noRI.gbw
Number of atoms                         ...      3
Number of basis functions               ...     93
Max core memory                         ...   1024 MB

Electric field perturbation             ...  NO
Quadrupolar field perturbation          ...  NO
Magnetic field perturbation (no GIAO)   ... YES
Magnetic field perturbation (with GIAO) ...  NO
Linear momentum (velocity) perturbation ...  NO
Spin-orbit coupling perturbation        ...  NO
Choice of electric origin               ... Center of mass
Position of electric origin             ...     0.264241     0.620705     0.000000
Choice of magnetic origin               ... Center of nuclear charge
Position of magnetic origin             ...     0.264312     0.620871     0.000000
Nuclear geometric perturbations         ...  NO (   9 perturbations)
Nucleus-orbit perturbations             ...  NO (   0 perturbations)
Spin-dipole/Fermi contact perturbations ...  NO (   0 perturbations)

Total number of real perturbations      ...      0
Total number of imaginary perturbations ...      3
Total number of triplet perturbations   ...      0
Total number of SOC perturbations       ...      0


                              ***************************
                              * IMAGINARY PERTURBATIONS *
                              ***************************



-------------------
SHARK CP-SCF DRIVER
-------------------

Dimension of the orbital basis          ...     93
Dimension of the CPSCF-problem          ...   1874
Number of operators                     ...      2
Max. number of iterations               ...    128
Convergence Tolerance                   ... 1.0e-03
Number of perturbations                 ...      3
Perturbation type                       ... IMAGINARY

----------------------------
POPLE LINEAR EQUATION SOLVER
----------------------------

  ITERATION   0:   ||err||_max =   7.1339e-01 (   0.6 sec   0/  3 done)
  ITERATION   1:   ||err||_max =   4.1674e-02 (   0.6 sec   0/  3 done)
  ITERATION   2:   ||err||_max =   3.3052e-03 (   0.6 sec   0/  3 done)
  ITERATION   3:   ||err||_max =   3.8498e-04 (   0.6 sec   3/  3 done)

CP-SCF equations solved in   2.3 sec
Response densities calculated in   0.0 sec

Maximum memory used throughout the entire SCFRESP-calculation: 14.5 MB

------------------------------------------------------------------------------
                              ORCA PROPERTY CALCULATIONS
------------------------------------------------------------------------------

GBWName                                 ... co2-_cpks_B3LYP_VWN3_noRI.gbw
Number of atoms                         ...      3
Number of basis functions               ...     93
Max core memory                         ...   1024 MB

Electric properties:
Dipole moment                           ... YES
Quadrupole moment                       ...  NO
Static polarizability (Dipole/Dipole)   ...  NO
Static polarizability (Dipole/Quad.)    ...  NO
Static polarizability (Quad./Quad.)     ...  NO
Static polarizability (Velocity)        ...  NO

Atomic electric properties:
Dipole moment                           ...  NO
Quadrupole moment                       ...  NO
Static polarizability                   ...  NO

Choice of electric origin               ... Center of mass
Position of electric origin             ...     0.264241     0.620705     0.000000

General magnetic properties:
Magnetizability                         ...  NO

EPR properties:
g-Tensor (aka g-matrix)                 ... YES
Zero-Field splitting spin-orbit         ...  NO
Zero-field splitting spin-spin          ...  NO
Hyperfine couplings                     ...  NO (   0 nuclei)
Quadrupole couplings                    ...  NO (   0 nuclei)
Contact density                         ...  NO (   0 nuclei)

NMR properties:
Chemical shifts                         ...  NO (   0 nuclei)
Spin-rotation constants                 ...  NO (   0 nuclei)
Spin-spin couplings                     ...  NO (   0 nuclei,    0 pairs)

Choice of magnetic origin               ... Center of nuclear charge
Position of magnetic origin             ...     0.264312     0.620871     0.000000

Properties with geometric perturbations:
SCF Hessian                             ...  NO
IR spectrum                             ...  NO
VCD spectrum                            ...  NO
X-ray spectroscopy properties:
SCF XES/XAS/RIXS spectra                ...  NO


-------------
DIPOLE MOMENT
-------------

Method             : SCF
Type of density    : Electron Density
Multiplicity       :   2
Irrep              :   0
Energy             :  -188.6440377378966105 Eh
Relativity type    : 
Basis              : AO
                                X                 Y                 Z
Electronic contribution:      0.014137419       0.033198166      -0.000000002
Nuclear contribution   :      0.001552513       0.003646869       0.000000000
                        -----------------------------------------
Total Dipole Moment    :      0.015689933       0.036845035      -0.000000002
                        -----------------------------------------
Magnitude (a.u.)       :      0.040046605
Magnitude (Debye)      :      0.101790380



--------------------
Rotational spectrum 
--------------------
 
Rotational constants in cm-1:             8.007408             0.396059             0.377393 
Rotational constants in MHz :        240056.058754         11873.550008         11313.944528 

Dipole components along the rotational axes: 
x,y,z [a.u.] :    -0.000004     0.040047    -0.000000 
x,y,z [Debye]:    -0.000011     0.101790    -0.000000 

 

Dipole moment calculation done in   0.0 sec 

-------------------
ELECTRONIC G-MATRIX
-------------------

Method             : SCF
Type of density    : Spin Density
Type of derivative : Magnetic Field (no GIAOs) (Direction=X)
Multiplicity       :   2
Irrep              :   0
Relativity type    : 
Basis              : AO
The g-matrix: 
              1.9978851    0.0016125   -0.0000000
              0.0016123    2.0009865    0.0000000
             -0.0000000   -0.0000000    2.0036748
DSO contribution to g-matrix:
              0.0001217   -0.0000201    0.0000000
             -0.0000201    0.0000830    0.0000000
              0.0000000    0.0000000    0.0001396
PSO contribution to g-matrix:
             -0.0043274    0.0016326   -0.0000000
              0.0016325   -0.0011872    0.0000000
             -0.0000000   -0.0000000    0.0014445

Breakdown of the contributions
 gel          2.0023193    2.0023193    2.0023193
 gRMC        -0.0002286   -0.0002286   -0.0002286
 gDSO(1el)    0.0001972    0.0001139    0.0002121
 gDSO(2el)   -0.0000669   -0.0000394   -0.0000724
 gDSO(tot)    0.0001303    0.0000745    0.0001396
 gPSO(1el)   -0.0083341   -0.0008360    0.0021163
 gPSO(2el)    0.0033117    0.0003437   -0.0006719
 gPSO(tot)   -0.0050223   -0.0004923    0.0014445
             ----------   ----------   ----------
 g(tot)       1.9971987    2.0016729    2.0036748 iso=  2.0008488
 Delta-g     -0.0051206   -0.0006464    0.0013555 iso= -0.0014705

 Orientation: 
  X          -0.9201041    0.3916740    0.0000000
  Y           0.3916740    0.9201041   -0.0000000
  Z          -0.0000000   -0.0000000   -1.0000000

Notes:  (1) The g-matrix conforms to the "BgS" spin Hamiltonian convention. 
        (2) The principal values are square roots of the eigenvalues of g*gT.
        (3) Orientations are eigenvectors of g*gT written as column vectors.
        (4) Individual contributions are projections of the full matrices onto the eigenvectors of g*gT.
        (5) Tensor is right-handed.

-------------------------------
G-TENSOR ATOM AND BOND ANALYSIS
-------------------------------

 NOTE: We project onto the eigenvectors of the total g-matrix
       that means that contributions do not necessarily add up to the final total g-values
       However, the values should be close and indicate which atoms dominantly contribute

 NOTE: We ONLY analyze the PSO term here!

 C -  0 :   -0.0010050 *  -0.0000225     0.0001056 *  iso= -0.0003073 *
 O -  1 :   -0.0022493 *  -0.0002686 *   0.0005100 *  iso= -0.0006693 *
 O -  2 :   -0.0022494 *  -0.0002685 *   0.0005100 *  iso= -0.0006693 *
           ------------- ------------- ------------- -----------------
 Total-1c   -0.0055037    -0.0005596     0.0011255        -0.0016459
 Total-2c    0.0004814     0.0000673     0.0003189         0.0002892
 Total      -0.0050223    -0.0004923     0.0014445        -0.0013567

EPR g-tensor done in   0.0 sec 

Maximum memory used throughout the entire PROP-calculation: 8.5 MB

--------------------------------
SUGGESTED CITATIONS FOR THIS RUN
--------------------------------

Below you find a list of papers that are relevant to this ORCA run
We neither can nor want to force you to cite these papers, but we appreciate if you do
You receive ORCA, which is the product of decades of hard work by many enthusiastic individuals, for free
The only thing we kindly ask in return is that you cite our papers,
We deeply appreciate it, if you show your appreciation for ORCA by not just citing the generic ORCA reference.

Please note that relegating all ORCA citations to the supporting information does *not* help us.
SI sections are not indexed - citations you put there will not count into any citation statistics
But we need these citations in order to attract the funding resources that allow us to do what we are doing

Therefore, if you are a happy ORCA user, please consider citing a few of the papers listed below in the main body of your paper

In addition to the list printed below, the program has created the file co2-_cpks_B3LYP_VWN3_noRI.bibtex that contains the list in bibtex format
You can import this file easily into all common literature databanks and citation aid programs


List of essential papers. We consider these as the minimum necessary citations

  1. Neese,F.
     Software update: the ORCA program system, version 5.0
     WIRES Comput. Molec. Sci., 2022 12(1)e1606
     doi.org/10.1002/wcms.1606

List of papers to cite with high priority. The work reported in these papers was absolutely
necessary for this run to complete.
Our perspective: the developers of density functionals and basis sets usually get cited in chemistry papers
Good! But without the algorithms to do something with them, the functionals or basis sets would not do anything.
Hence, in our opinion, the algorithm design and method developments papers are equally worthy of getting cited

  1. Neese,F.
     Prediction of electron paramagnetic resonance g values using coupled perturbed Hartree-Fock and Kohn-Sham theory
     J. Chem. Phys., 2001 115(24)11080-11096
     doi.org/10.1063/1.1419058
  2. Neese,F.
     Efficient and accurate approximations to the molecular spin-orbit coupling operator and their use in molecular g-tensor calculations
     J. Chem. Phys., 2005 122(3)Art. No. 034107
     doi.org/10.1063/1.1829047
  3. Neese,F.
     The SHARK Integral Generation and Digestion System
     J. Comp. Chem., 2022  1-16
     doi.org/10.1002/jcc.26942

List of suggested additional citations. These are papers that are important in the 'surrounding' of 
of this run, or papers that preceded the highly important papers. If you like your results we are grateful for a citation.

  1. Neese,F.
     The ORCA program system
     WIRES Comput. Molec. Sci., 2012 2(1)73-78
     doi.org/10.1002/wcms.81
  2. Neese,F.
     Software update: the ORCA program system, version 4.0
     WIRES Comput. Molec. Sci., 2018 8(1)1-6
     doi.org/10.1002/wcms.1327
  3. Neese,F.; Wennmohs,F.; Becker,U.; Riplinger,C.
     The ORCA quantum chemistry program package
     J. Chem. Phys., 2020 152 Art. No. L224108
     doi.org/10.1063/5.0004608

List of optional additional citations

  1. Neese,F.
     Approximate second-order SCF convergence for spin unrestricted wavefunctions
     Chem. Phys. Lett., 2000 325(1-3)93-98
     doi.org/10.1016/s0009-2614(00)00662-x

Timings for individual modules:

Sum of individual times          ...       11.250 sec (=   0.187 min)
Startup calculation              ...        0.271 sec (=   0.005 min)   2.4 %
SCF iterations                   ...        5.224 sec (=   0.087 min)  46.4 %
Property integrals               ...        3.164 sec (=   0.053 min)  28.1 %
SCF Response                     ...        2.502 sec (=   0.042 min)  22.2 %
Property calculations            ...        0.089 sec (=   0.001 min)   0.8 %
                             ****ORCA TERMINATED NORMALLY****
TOTAL RUN TIME: 0 days 0 hours 0 minutes 11 seconds 531 msec
