
                                 *****************
                                 * O   R   C   A *
                                 *****************

                                            #,                                       
                                            ###                                      
                                            ####                                     
                                            #####                                    
                                            ######                                   
                                           ########,                                 
                                     ,,################,,,,,                         
                               ,,#################################,,                 
                          ,,##########################################,,             
                       ,#########################################, ''#####,          
                    ,#############################################,,   '####,        
                  ,##################################################,,,,####,       
                ,###########''''           ''''###############################       
              ,#####''   ,,,,##########,,,,          '''####'''          '####       
            ,##' ,,,,###########################,,,                        '##       
           ' ,,###''''                  '''############,,,                           
         ,,##''                                '''############,,,,        ,,,,,,###''
      ,#''                                            '''#######################'''  
     '                                                          ''''####''''         
             ,#######,   #######,   ,#######,      ##                                
            ,#'     '#,  ##    ##  ,#'     '#,    #''#        ,####,   ,####,        
            ##       ##  ##   ,#'  ##            #'  '#       #'       #'  '#        
            ##       ##  #######   ##           ,######,      #####,   #    #        
            '#,     ,#'  ##    ##  '#,     ,#' ,#      #,     #,   #   #,  ,#        
             '#######'   ##     ##  '#######'  #'      '#     '####' # '####'        



                #########################################################
                #                        -***-                          #
                #          Department of theory and spectroscopy        #
                #                                                       #
                #                      Frank Neese                      #
                #                                                       #
                #     Directorship, Architecture, Infrastructure        #
                #                    SHARK, DRIVERS                     #
                #        Core code/Algorithms in most modules           #
                #                                                       #
                #        Max Planck Institute fuer Kohlenforschung      #
                #                Kaiser Wilhelm Platz 1                 #
                #                 D-45470 Muelheim/Ruhr                 #
                #                      Germany                          #
                #                                                       #
                #                  All rights reserved                  #
                #                        -***-                          #
                #########################################################


                         Program Version 6.0.0  -   RELEASE  -


 With contributions from (in alphabetic order):
   Daniel Aravena         : Magnetic Suceptibility
   Michael Atanasov       : Ab Initio Ligand Field Theory (pilot matlab implementation)
   Alexander A. Auer      : GIAO ZORA, VPT2 properties, NMR spectrum
   Ute Becker             : All parallelization in ORCA, NUMFREQ, NUMCALC
   Giovanni Bistoni       : ED, misc. LED, open-shell LED, HFLD
   Martin Brehm           : Molecular dynamics
   Dmytro Bykov           : pre 5.0 version of the SCF Hessian
   Marcos Casanova-Páez   : Triplet and SCS-CIS(D). UHF-(DLPNO)-IP/EA/STEOM-CCSD. UHF-CVS-IP/STEOM-CCSD
   Vijay G. Chilkuri      : MRCI spin determinant printing, contributions to CSF-ICE
   Pauline Colinet        : FMM embedding
   Dipayan Datta          : RHF DLPNO-CCSD density
   Achintya Kumar Dutta   : EOM-CC, STEOM-CC
   Nicolas Foglia         : Exact transition moments, OPA infrastructure, MCD improvements
   Dmitry Ganyushin       : Spin-Orbit,Spin-Spin,Magnetic field MRCI
   Miquel Garcia          : C-PCM and meta-GGA Hessian, CCSD/C-PCM, Gaussian charge scheme
   Tiago L. C. Gouveia    : GS-ROHF, GS-ROCIS
   Yang Guo               : DLPNO-NEVPT2, F12-NEVPT2, CIM, IAO-localization
   Andreas Hansen         : Spin unrestricted coupled pair/coupled cluster methods
   Ingolf Harden          : AUTO-CI MPn and infrastructure 
   Benjamin Helmich-Paris : MC-RPA, TRAH-(SCF,CASSCF), AVAS, COSX integrals, SCF dyn. polar.
   Lee Huntington         : MR-EOM, pCC
   Robert Izsak           : Overlap fitted RIJCOSX, COSX-SCS-MP3, EOM
   Riya Kayal             : Wick's Theorem for AUTO-CI, AUTO-CI UHF-CCSDT
   Emily Kempfer          : AUTO-CI, RHF CISDT and CCSDT
   Christian Kollmar      : KDIIS, OOCD, Brueckner-CCSD(T), CCSD density, CASPT2, CASPT2-K, improved NEVPT2
   Axel Koslowski         : Symmetry handling
   Simone Kossmann        : Meta GGA functionals, TD-DFT gradient, OOMP2, (MP2 Hessian; deprecated post 5.0)
   Lucas Lang             : DCDCAS
   Marvin Lechner         : AUTO-CI (C++ implementation), FIC-MRCC
   Spencer Leger          : CASSCF response
   Dagmar Lenk            : GEPOL surface, SMD, ORCA-2-JSON
   Dimitrios Liakos       : Extrapolation schemes; Compound Job, initial MDCI parallelization
   Dimitrios Manganas     : Further ROCIS development; embedding schemes. LFT, Crystal Embedding
   Dimitrios Pantazis     : SARC Basis sets
   Anastasios Papadopoulos: AUTO-CI, single reference methods and gradients
   Taras Petrenko         : pre 6.0 DFT Hessian and TD-DFT gradient, (ASA, deprecated), ECA, 1-Electron XAS/XES, NRVS
   Peter Pinski           : DLPNO-MP2, DLPNO-MP2 Gradient
   Christoph Reimann      : Effective Core Potentials
   Marius Retegan         : Local ZFS, SOC
   Christoph Riplinger    : Optimizer, TS searches, QM/MM, DLPNO-CCSD(T), (RO)-DLPNO pert. Triples
   Michael Roemelt        : Original ROCIS implementation
   Masaaki Saitow         : Open-shell DLPNO-CCSD energy and density
   Barbara Sandhoefer     : DKH picture change effects
   Kantharuban Sivalingam : CASSCF convergence/infrastructure, NEVPT2 and variants, FIC-MRCI
   Bernardo de Souza      : ESD, SOC TD-DFT
   Georgi Stoychev        : AutoAux, RI-MP2 NMR, DLPNO-MP2 response, X2C
   Van Anh Tran           : RI-MP2 g-tensors
   Willem Van den Heuvel  : Paramagnetic NMR
   Zikuan Wang            : NOTCH, Electric field optimization 
   Frank Wennmohs         : Technical directorship and infrastructure
   Hang Xu                : AUTO-CI-Response properties 


 We gratefully acknowledge several colleagues who have allowed us to
 interface, adapt or use parts of their codes:
   Stefan Grimme, W. Hujo, H. Kruse, P. Pracht,  : VdW corrections, initial TS optimization,
                  C. Bannwarth, S. Ehlert,         DFT functionals, gCP, sTDA/sTD-DF
                  L. Wittmann, M. Mueller
   Ed Valeev, F. Pavosevic, A. Kumar             : LibInt (2-el integral package), F12 methods
   Garnet Chan, S. Sharma, J. Yang, R. Olivares  : DMRG
   Ulf Ekstrom                                   : XCFun DFT Library
   Mihaly Kallay                                 : mrcc  (arbitrary order and MRCC methods)
   Frank Weinhold                                : gennbo (NPA and NBO analysis)
   Simon Mueller                                 : openCOSMO-RS
   Christopher J. Cramer and Donald G. Truhlar   : smd solvation model
   Lars Goerigk                                  : TD-DFT with DH, B97 family of functionals
   V. Asgeirsson, H. Jonsson                     : NEB implementation
   FAccTs GmbH                                   : IRC, NEB, NEB-TS, DLPNO-Multilevel, CI-OPT
                                                   MM, QMMM, 2- and 3-layer-ONIOM, Crystal-QMMM,
                                                   LR-CPCM, SF, NACMEs, symmetry and pop. for TD-DFT,
                                                   nearIR, NL-DFT gradient (VV10), updates on ESD,
                                                   ML-optimized integration grids, MBIS, APM,
                                                   GOAT, DOCKER, SOLVATOR, interface openCOSMO-RS
   S Lehtola, MJT Oliveira, MAL Marques          : LibXC Library
   Liviu Ungur et al                             : ANISO software


 Your calculation uses the libint2 library for the computation of 2-el integrals
 For citations please refer to: http://libint.valeyev.net

 Your ORCA version has been built with support for libXC version: 6.2.2
 For citations please refer to: https://libxc.gitlab.io

 This ORCA versions uses:
   CBLAS   interface :  Fast vector & matrix operations
   LAPACKE interface :  Fast linear algebra routines
   SCALAPACK package :  Parallel linear algebra routines
   Shared memory     :  Shared parallel matrices
   BLAS/LAPACK       :  OpenBLAS 0.3.27  USE64BITINT DYNAMIC_ARCH NO_AFFINITY SkylakeX SINGLE_THREADED
        Core in use  :  SkylakeX
   Copyright (c) 2011-2014, The OpenBLAS Project




************************************
The Z-Matrix will be read from file: no2.gzmt
************************************


================================================================================

----- Orbital basis set information -----
Your calculation utilizes the basis: def2-TZVP
   F. Weigend and R. Ahlrichs, Phys. Chem. Chem. Phys. 7, 3297 (2005).

================================================================================
                                        WARNINGS
                       Please study these warnings very carefully!
================================================================================


WARNING: your system is open-shell and RHF/RKS was chosen
  ===> : WILL SWITCH to UHF/UKS


================================================================================
                                       INPUT FILE
================================================================================
NAME = no2_cpks_B3LYP_VWN3_noRI.inp
|  1> !B3LYP def2-TZVP SOMF(1X) FrozenCore MINIPRINT 
|  2> 
|  3> %METHOD
|  4> Functional B3LYP_G
|  5> RI false
|  6> END
|  7> 
|  8> %EPRNMR 			# Control of EPR and NMR calculations
|  9>  gtensor 1			# Calculate the g-tensor 
| 10>  ori CenterOfNucCharge		# origin for magnetic properties: CenterOfElCharge, CenterOfNucCharge
| 11>  printlevel 4			# detailed information
| 12> END
| 13> 
| 14> * gzmtfile 0 2 no2.gzmt 	# Coordinates
| 15> 
| 16> 
| 17>                          ****END OF INPUT****
================================================================================

                       ****************************
                       * Single Point Calculation *
                       ****************************

---------------------------------
CARTESIAN COORDINATES (ANGSTROEM)
---------------------------------
  N      0.000000    0.000000    0.000000
  O      1.194400    0.000000    0.000000
  O     -0.833142    0.855842    0.000000

----------------------------
CARTESIAN COORDINATES (A.U.)
----------------------------
  NO LB      ZA    FRAG     MASS         X           Y           Z
   0 N     7.0000    0    14.007    0.000000    0.000000    0.000000
   1 O     8.0000    0    15.999    2.257089    0.000000    0.000000
   2 O     8.0000    0    15.999   -1.574411    1.617307    0.000000

------------------------------------------------------------------------------
                   ___                                                        
                  /   \      - P O W E R E D   B Y -                         
                 /     \                                                     
                 |  |  |   _    _      __       _____    __    __             
                 |  |  |  | |  | |    /  \     |  _  \  |  |  /  |          
                  \  \/   | |  | |   /    \    | | | |  |  | /  /          
                 / \  \   | |__| |  /  /\  \   | |_| |  |  |/  /          
                |  |  |   |  __  | /  /__\  \  |    /   |      \           
                |  |  |   | |  | | |   __   |  |    \   |  |\   \          
                \     /   | |  | | |  |  |  |  | |\  \  |  | \   \       
                 \___/    |_|  |_| |__|  |__|  |_| \__\ |__|  \__/        
                                                                              
                      - O R C A' S   B I G   F R I E N D -                    
                                      &                                       
                       - I N T E G R A L  F E E D E R -                       
                                                                              
 v1 FN, 2020, v2 2021, v3 2022-2024                                           
------------------------------------------------------------------------------


----------------------
SHARK INTEGRAL PACKAGE
----------------------

Number of atoms                             ...      3
Number of basis functions                   ...     93
Number of shells                            ...     33
Maximum angular momentum                    ...      3
Integral batch strategy                     ... SHARK/LIBINT Hybrid
RI-J (if used) integral strategy            ... SPLIT-RIJ (Revised 2003 algorithm where possible)
Printlevel                                  ...      1
Contraction scheme used                     ... SEGMENTED contraction
Prescreening option                         ... SCHWARTZ
   Thresh                                   ... 1.000e-10
   Tcut                                     ... 1.000e-11
   Tpresel                                  ... 1.000e-11 
Coulomb Range Separation                    ... NOT USED
Exchange Range Separation                   ... NOT USED
Multipole approximations                    ... NOT USED
Finite Nucleus Model                        ... NOT USED
CABS basis                                  ... NOT available
Auxiliary Coulomb fitting basis             ... NOT available
Auxiliary J/K fitting basis                 ... NOT available
Auxiliary Correlation fitting basis         ... NOT available
Auxiliary 'external' fitting basis          ... NOT available

Checking pre-screening integrals            ... done (  0.0 sec) Dimension = 33
Check shell pair data                       ... done (  0.0 sec)
Shell pair information
Shell pair cut-off parameter TPreSel        ...   1.0e-11
Total number of shell pairs                 ...       561
Shell pairs after pre-screening             ...       553
Total number of primitive shell pairs       ...      1896
Primitive shell pairs kept                  ...      1599
          la=0 lb=0:    114 shell pairs
          la=1 lb=0:    135 shell pairs
          la=1 lb=1:     45 shell pairs
          la=2 lb=0:     88 shell pairs
          la=2 lb=1:     54 shell pairs
          la=2 lb=2:     21 shell pairs
          la=3 lb=0:     45 shell pairs
          la=3 lb=1:     27 shell pairs
          la=3 lb=2:     18 shell pairs
          la=3 lb=3:      6 shell pairs

Calculating one electron integrals          ... done (  0.0 sec)
Calculating Nuclear repulsion               ... done (  0.0 sec) ENN=     65.010292638733 Eh

Diagonalization of the overlap matrix:
Smallest eigenvalue                        ... 1.057e-03
Time for diagonalization                   ...    0.002 sec
Threshold for overlap eigenvalues          ... 1.000e-07
Number of eigenvalues below threshold      ... 0
Time for construction of square roots      ...    0.023 sec
Total time needed                          ...    0.027 sec

-------------------
DFT GRID GENERATION
-------------------

General Integration Accuracy     IntAcc      ... 4.388
Radial Grid Type                 RadialGrid  ... OptM3 with GC (2021)
Angular Grid (max. ang.)         AngularGrid ... 4 (Lebedev-302)
Angular grid pruning method      GridPruning ... 4 (adaptive)
Weight generation scheme         WeightScheme... mBecke (2022)
Basis function cutoff            BFCut       ... 1.0000e-10
Integration weight cutoff        WCut        ... 1.0000e-14
Partially contracted basis set               ... off
Rotationally invariant grid construction     ... off
Angular grids for H and He will be reduced by one unit

Total number of grid points                  ...    18374
Total number of batches                      ...      288
Average number of points per batch           ...       63
Average number of grid points per atom       ...     6125
Initializing property integral containers    ... done (  0.0 sec)

SHARK setup successfully completed in   0.2 seconds

Maximum memory used throughout the entire STARTUP-calculation: 12.4 MB
Loading Hartree-Fock densities                     ... done
Calculating cut-offs                               ... done
Initializing the effective Hamiltonian             ... done
Setting up the integral package (SHARK)            ... done
Starting the Coulomb interaction                   ... done (   0.0 sec)
Making the grid                                    ... done (   0.0 sec)
Mapping shells                                     ... done
Starting the XC term evaluation                    ... done (   0.0 sec)
  promolecular density results
     # of electrons  =     23.000185434
     EX              =    -22.920642835
     EC              =     -0.834351961
     EX+EC           =    -23.754994796
Transforming the Hamiltonian                       ... done (   0.0 sec)
Diagonalizing the Hamiltonian                      ... done (   0.0 sec)
Back transforming the eigenvectors                 ... done (   0.0 sec)
Now organizing SCF variables                       ... done
             **** ENERGY FILE WAS UPDATED (no2_cpks_B3LYP_VWN3_noRI.en.tmp) ****
Finished Guess after   0.1 sec
Maximum memory used throughout the entire GUESS-calculation: 7.5 MB
----------------------------------------D-I-I-S--------------------------------------------
Iteration    Energy (Eh)           Delta-E    RMSDP     MaxDP     DIISErr   Damp  Time(sec)
-------------------------------------------------------------------------------------------
               ***  Starting incremental Fock matrix formation  ***
    1    -205.0909608825542705     0.00e+00  1.15e-03  1.64e-02  9.98e-02  0.700   0.6
    2    -205.1298649094330244    -3.89e-02  6.09e-04  1.07e-02  3.20e-02  0.700   0.6
                               ***Turning on AO-DIIS***
    3    -205.1399983609668993    -1.01e-02  2.08e-04  4.61e-03  1.37e-02  0.700   0.6
    4    -205.1478082453132856    -7.81e-03  4.57e-04  1.87e-02  1.12e-02  0.000   0.5
                              *** Initializing SOSCF ***
---------------------------------------S-O-S-C-F--------------------------------------
Iteration    Energy (Eh)           Delta-E    RMSDP     MaxDP     MaxGrad    Time(sec)
--------------------------------------------------------------------------------------
    5    -205.1670166484487936    -1.92e-02  1.32e-04  6.89e-03  1.94e-03     0.6
               *** Restarting incremental Fock matrix formation ***
    6    -205.1670781549467506    -6.15e-05  8.22e-05  4.86e-03  1.02e-03     0.5
    7    -205.1670872821469516    -9.13e-06  4.74e-05  2.87e-03  4.04e-04     0.5
    8    -205.1670869061193230     3.76e-07  1.50e-05  7.88e-04  5.09e-04     0.5
                 **** Energy Check signals convergence ****

               *****************************************************
               *                     SUCCESS                       *
               *           SCF CONVERGED AFTER   8 CYCLES          *
               *****************************************************

             **** ENERGY FILE WAS UPDATED (no2_cpks_B3LYP_VWN3_noRI.en.tmp) ****

----------------
TOTAL SCF ENERGY
----------------

Total Energy       :       -205.16708690611932 Eh           -5582.88026 eV

Components:
Nuclear Repulsion  :         65.01029263873335 Eh            1769.02000 eV
Electronic Energy  :       -270.17737954485267 Eh           -7351.90026 eV
One Electron Energy:       -408.90949936153697 Eh          -11126.99316 eV
Two Electron Energy:        138.73211981668433 Eh            3775.09290 eV

Virial components:
Potential Energy   :       -409.54008136376592 Eh          -11144.15217 eV
Kinetic Energy     :        204.37299445764660 Eh            5561.27191 eV
Virial Ratio       :          2.00388550576645

DFT components:
N(Alpha)           :       11.999999224191 electrons
N(Beta)            :       10.999999870146 electrons
N(Total)           :       22.999999094337 electrons
E(X)               :      -18.311894067306 Eh       
E(C)               :       -1.064099920819 Eh       
E(XC)              :      -19.375993988125 Eh       

---------------
SCF CONVERGENCE
---------------

  Last Energy change         ...   -3.7603e-07  Tolerance :   1.0000e-06
  Last MAX-Density change    ...    7.8783e-04  Tolerance :   1.0000e-05
  Last RMS-Density change    ...    1.4989e-05  Tolerance :   1.0000e-06
  Last DIIS Error            ...    1.9369e-03  Tolerance :   1.0000e-06
  Last Orbital Gradient      ...    5.0866e-04  Tolerance :   5.0000e-05
  Last Orbital Rotation      ...    2.9686e-04  Tolerance :   5.0000e-05


----------------------
UHF SPIN CONTAMINATION
----------------------

Warning: in a DFT calculation there is little theoretical justification to 
         calculate <S**2> as in Hartree-Fock theory. We will do it anyways
         but you should keep in mind that the values have only limited relevance

Expectation value of <S**2>     :     0.753725
Ideal value S*(S+1) for S=0.5   :     0.750000
Deviation                       :     0.003725

----------------
ORBITAL ENERGIES
----------------
                 SPIN UP ORBITALS
  NO   OCC          E(Eh)            E(eV) 
   0   1.0000     -19.247473      -523.7504 
   1   1.0000     -19.246971      -523.7367 
   2   1.0000     -14.567428      -396.3999 
   3   1.0000      -1.294597       -35.2278 
   4   1.0000      -1.148466       -31.2514 
   5   1.0000      -0.686796       -18.6887 
   6   1.0000      -0.589013       -16.0278 
   7   1.0000      -0.584267       -15.8987 
   8   1.0000      -0.578794       -15.7498 
   9   1.0000      -0.394456       -10.7337 
  10   1.0000      -0.390086       -10.6148 
  11   1.0000      -0.297311        -8.0902 
  12   0.0000      -0.098542        -2.6815 
  13   0.0000       0.140847         3.8326 
  14   0.0000       0.228375         6.2144 
  15   0.0000       0.241900         6.5824 
  16   0.0000       0.285186         7.7603 
  17   0.0000       0.296938         8.0801 
  18   0.0000       0.385324        10.4852 
  19   0.0000       0.400310        10.8930 
  20   0.0000       0.443129        12.0582 
  21   0.0000       0.458880        12.4868 
  22   0.0000       0.492936        13.4135 

                 SPIN DOWN ORBITALS
  NO   OCC          E(Eh)            E(eV) 
   0   1.0000     -19.238367      -523.5026 
   1   1.0000     -19.237867      -523.4890 
   2   1.0000     -14.556447      -396.1011 
   3   1.0000      -1.276079       -34.7239 
   4   1.0000      -1.127576       -30.6829 
   5   1.0000      -0.654485       -17.8095 
   6   1.0000      -0.568196       -15.4614 
   7   1.0000      -0.562092       -15.2953 
   8   1.0000      -0.543354       -14.7854 
   9   1.0000      -0.383102       -10.4247 
  10   1.0000      -0.354668        -9.6510 
  11   0.0000      -0.154976        -4.2171 
  12   0.0000      -0.082207        -2.2370 
  13   0.0000       0.150872         4.1054 
  14   0.0000       0.235809         6.4167 
  15   0.0000       0.254728         6.9315 
  16   0.0000       0.288678         7.8553 
  17   0.0000       0.312212         8.4957 
  18   0.0000       0.388328        10.5669 
  19   0.0000       0.404767        11.0143 
  20   0.0000       0.444778        12.1030 
  21   0.0000       0.473224        12.8771 
*Only the first 10 virtual orbitals were printed.
Total SCF time: 0 days 0 hours 0 min 4 sec 
Finished LeanSCF after   4.5 sec

Maximum memory used throughout the entire LEANSCF-calculation: 13.5 MB

------------------------------------------------------------------------------
                         ORCA PROPERTY INTEGRAL CALCULATIONS
------------------------------------------------------------------------------

GBWName                                   ... no2_cpks_B3LYP_VWN3_noRI.gbw
Number of atoms                           ...      3
Number of basis functions                 ...     93
Max core memory                           ...   1024 MB

Dipole integrals                          ... YES
Quadrupole integrals                      ...  NO
Linear momentum integrals                 ...  NO
Angular momentum integrals                ... YES
Higher moments length integrals           ...  NO
Higher moments velocity integrals         ...  NO
Kinetic energy integrals                  ... YES
GIAO right hand sides                     ...  NO
GIAO dipole derivative integrals          ...  NO
SOC integrals                             ... YES
EPR diamagnetic integrals (GIAO)          ...  NO
EPR gauge integrals                       ... YES
Field gradient integrals                  ...  NO (   0 nuclei)
Spin-dipole/Fermi contact integrals       ...  NO (   0 nuclei)
Contact density integrals                 ...  NO (   0 nuclei)
Nucleus-orbit integrals                   ...  NO (   0 nuclei)
Geometric perturbations                   ...  NO (   3 nuclei)

Choice of electric origin   ... Center of mass
Position of electric origin ... (  0.2374,  0.5624,  0.0000) 
Choice of magnetic origin   ... Center of nuclear charge
Position of magnetic origin ... (  0.2375,  0.5625,  0.0000) 

Calculating integrals                     ... Electric Dipole (Length)     done (  0.0 sec)
Calculating integrals                     ... Kinetic Energy               done (  0.0 sec)
Calculating integrals                     ... Angular Momentum  (MagOri)   done (  0.0 sec)
Calculating integrals                     ... EPR-gauge integrals          done (  0.0 sec)
  g-Tensor DSO: Zeff (2-electron approx.) ... YES 
Calculating integrals                     ... Spin-Orbit Coupling
  Spin-orbit operator                     ... Spin-Orbit Mean-Field (SOMF)
      1-El-Flag                           ...  1 ON
      Coulomb-Flag                        ...  2 ON (Via COSJ)
      Exchange-Flag                       ...  3 ON (AMFI type)
      DFT-Correlation Flag                ...  0 OFF
      Max-Center                          ...  4   
      Relativistic Picture Change         ... OFF     
  Electron density on the grid            ... done (%5.1 lf sec) NEL=     0.026460000
  SOC Coulomb terms                       ... done (%5.1 lf sec)
  One-electron part                       ... done (  0.0 sec)
  Two-electron DoJ,X=0,1 MaxCenter=1      ... done (  0.3 sec)
  SOC integrals done (  3.0 sec)

Property integrals calculated in   3.0 sec

Maximum memory used throughout the entire PROPINT-calculation: 14.1 MB

-------------------------   --------------------
FINAL SINGLE POINT ENERGY      -205.167086906119
-------------------------   --------------------

------------------------------------------------------------------------------
                            ORCA SCF RESPONSE CALCULATION
------------------------------------------------------------------------------

GBWName                                 ... no2_cpks_B3LYP_VWN3_noRI.gbw
Number of atoms                         ...      3
Number of basis functions               ...     93
Max core memory                         ...   1024 MB

Electric field perturbation             ...  NO
Quadrupolar field perturbation          ...  NO
Magnetic field perturbation (no GIAO)   ... YES
Magnetic field perturbation (with GIAO) ...  NO
Linear momentum (velocity) perturbation ...  NO
Spin-orbit coupling perturbation        ...  NO
Choice of electric origin               ... Center of mass
Position of electric origin             ...     0.237413     0.562445     0.000000
Choice of magnetic origin               ... Center of nuclear charge
Position of magnetic origin             ...     0.237453     0.562542     0.000000
Nuclear geometric perturbations         ...  NO (   9 perturbations)
Nucleus-orbit perturbations             ...  NO (   0 perturbations)
Spin-dipole/Fermi contact perturbations ...  NO (   0 perturbations)

Total number of real perturbations      ...      0
Total number of imaginary perturbations ...      3
Total number of triplet perturbations   ...      0
Total number of SOC perturbations       ...      0


                              ***************************
                              * IMAGINARY PERTURBATIONS *
                              ***************************



-------------------
SHARK CP-SCF DRIVER
-------------------

Dimension of the orbital basis          ...     93
Dimension of the CPSCF-problem          ...   1874
Number of operators                     ...      2
Max. number of iterations               ...    128
Convergence Tolerance                   ... 1.0e-03
Number of perturbations                 ...      3
Perturbation type                       ... IMAGINARY

----------------------------
POPLE LINEAR EQUATION SOLVER
----------------------------

  ITERATION   0:   ||err||_max =   9.8679e-01 (   0.6 sec   0/  3 done)
  ITERATION   1:   ||err||_max =   7.3920e-02 (   0.6 sec   0/  3 done)
  ITERATION   2:   ||err||_max =   8.7078e-03 (   0.6 sec   0/  3 done)
  ITERATION   3:   ||err||_max =   1.1512e-03 (   0.6 sec   2/  3 done)
  ITERATION   4:   ||err||_max =   1.8845e-04 (   0.4 sec   3/  3 done)

CP-SCF equations solved in   2.8 sec
Response densities calculated in   0.0 sec

Maximum memory used throughout the entire SCFRESP-calculation: 14.5 MB

------------------------------------------------------------------------------
                              ORCA PROPERTY CALCULATIONS
------------------------------------------------------------------------------

GBWName                                 ... no2_cpks_B3LYP_VWN3_noRI.gbw
Number of atoms                         ...      3
Number of basis functions               ...     93
Max core memory                         ...   1024 MB

Electric properties:
Dipole moment                           ... YES
Quadrupole moment                       ...  NO
Static polarizability (Dipole/Dipole)   ...  NO
Static polarizability (Dipole/Quad.)    ...  NO
Static polarizability (Quad./Quad.)     ...  NO
Static polarizability (Velocity)        ...  NO

Atomic electric properties:
Dipole moment                           ...  NO
Quadrupole moment                       ...  NO
Static polarizability                   ...  NO

Choice of electric origin               ... Center of mass
Position of electric origin             ...     0.237413     0.562445     0.000000

General magnetic properties:
Magnetizability                         ...  NO

EPR properties:
g-Tensor (aka g-matrix)                 ... YES
Zero-Field splitting spin-orbit         ...  NO
Zero-field splitting spin-spin          ...  NO
Hyperfine couplings                     ...  NO (   0 nuclei)
Quadrupole couplings                    ...  NO (   0 nuclei)
Contact density                         ...  NO (   0 nuclei)

NMR properties:
Chemical shifts                         ...  NO (   0 nuclei)
Spin-rotation constants                 ...  NO (   0 nuclei)
Spin-spin couplings                     ...  NO (   0 nuclei,    0 pairs)

Choice of magnetic origin               ... Center of nuclear charge
Position of magnetic origin             ...     0.237453     0.562542     0.000000

Properties with geometric perturbations:
SCF Hessian                             ...  NO
IR spectrum                             ...  NO
VCD spectrum                            ...  NO
X-ray spectroscopy properties:
SCF XES/XAS/RIXS spectra                ...  NO


-------------
DIPOLE MOMENT
-------------

Method             : SCF
Type of density    : Electron Density
Multiplicity       :   2
Irrep              :   0
Energy             :  -205.1670869061193230 Eh
Relativity type    : 
Basis              : AO
                                X                 Y                 Z
Electronic contribution:     -0.051838172      -0.121116325       0.000000000
Nuclear contribution   :      0.000934871       0.002214766       0.000000000
                        -----------------------------------------
Total Dipole Moment    :     -0.050903301      -0.118901559       0.000000000
                        -----------------------------------------
Magnitude (a.u.)       :      0.129339579
Magnitude (Debye)      :      0.328755084



--------------------
Rotational spectrum 
--------------------
 
Rotational constants in cm-1:             8.020418             0.435095             0.412707 
Rotational constants in MHz :        240446.069088         13043.827961         12372.631791 

Dipole components along the rotational axes: 
x,y,z [a.u.] :     0.000658    -0.129338     0.000000 
x,y,z [Debye]:     0.001672    -0.328751     0.000000 

 

Dipole moment calculation done in   0.0 sec 

-------------------
ELECTRONIC G-MATRIX
-------------------

Method             : SCF
Type of density    : Spin Density
Type of derivative : Magnetic Field (no GIAOs) (Direction=X)
Multiplicity       :   2
Irrep              :   0
Relativity type    : 
Basis              : AO
The g-matrix: 
              1.9929409    0.0037013   -0.0000000
              0.0037005    2.0001444   -0.0000000
             -0.0000000    0.0000000    2.0059476
DSO contribution to g-matrix:
              0.0001565   -0.0000218   -0.0000000
             -0.0000218    0.0001141   -0.0000000
              0.0000000   -0.0000000    0.0001921
PSO contribution to g-matrix:
             -0.0092086    0.0037231   -0.0000000
              0.0037223   -0.0019628   -0.0000000
             -0.0000000    0.0000000    0.0037625

Breakdown of the contributions
 gel          2.0023193    2.0023193    2.0023193
 gRMC        -0.0003263   -0.0003263   -0.0003263
 gDSO(1el)    0.0002433    0.0001550    0.0002828
 gDSO(2el)   -0.0000776   -0.0000501   -0.0000907
 gDSO(tot)    0.0001657    0.0001049    0.0001921
 gPSO(1el)   -0.0173768   -0.0006842    0.0057252
 gPSO(2el)    0.0065965    0.0002932   -0.0019627
 gPSO(tot)   -0.0107803   -0.0003911    0.0037625
             ----------   ----------   ----------
 g(tot)       1.9913784    2.0017069    2.0059476 iso=  1.9996776
 Delta-g     -0.0109409   -0.0006124    0.0036283 iso= -0.0026416

 Orientation: 
  X          -0.9212594    0.3889487    0.0000000
  Y           0.3889487    0.9212594    0.0000000
  Z          -0.0000000    0.0000000   -1.0000000

Notes:  (1) The g-matrix conforms to the "BgS" spin Hamiltonian convention. 
        (2) The principal values are square roots of the eigenvalues of g*gT.
        (3) Orientations are eigenvectors of g*gT written as column vectors.
        (4) Individual contributions are projections of the full matrices onto the eigenvectors of g*gT.
        (5) Tensor is right-handed.

-------------------------------
G-TENSOR ATOM AND BOND ANALYSIS
-------------------------------

 NOTE: We project onto the eigenvectors of the total g-matrix
       that means that contributions do not necessarily add up to the final total g-values
       However, the values should be close and indicate which atoms dominantly contribute

 NOTE: We ONLY analyze the PSO term here!

 N -  0 :   -0.0032817 *  -0.0000695 *   0.0005916 *  iso= -0.0009199 *
 O -  1 :   -0.0041171 *  -0.0001688 *   0.0014414 *  iso= -0.0009482 *
 O -  2 :   -0.0041207 *  -0.0001690 *   0.0014419 *  iso= -0.0009493 *
           ------------- ------------- ------------- -----------------
 Total-1c   -0.0115195    -0.0004073     0.0034749        -0.0028173
 Total-2c    0.0007392     0.0000162     0.0002876         0.0003477
 Total      -0.0107803    -0.0003911     0.0037625        -0.0024696

EPR g-tensor done in   0.0 sec 

Maximum memory used throughout the entire PROP-calculation: 8.5 MB

--------------------------------
SUGGESTED CITATIONS FOR THIS RUN
--------------------------------

Below you find a list of papers that are relevant to this ORCA run
We neither can nor want to force you to cite these papers, but we appreciate if you do
You receive ORCA, which is the product of decades of hard work by many enthusiastic individuals, for free
The only thing we kindly ask in return is that you cite our papers,
We deeply appreciate it, if you show your appreciation for ORCA by not just citing the generic ORCA reference.

Please note that relegating all ORCA citations to the supporting information does *not* help us.
SI sections are not indexed - citations you put there will not count into any citation statistics
But we need these citations in order to attract the funding resources that allow us to do what we are doing

Therefore, if you are a happy ORCA user, please consider citing a few of the papers listed below in the main body of your paper

In addition to the list printed below, the program has created the file no2_cpks_B3LYP_VWN3_noRI.bibtex that contains the list in bibtex format
You can import this file easily into all common literature databanks and citation aid programs


List of essential papers. We consider these as the minimum necessary citations

  1. Neese,F.
     Software update: the ORCA program system, version 5.0
     WIRES Comput. Molec. Sci., 2022 12(1)e1606
     doi.org/10.1002/wcms.1606

List of papers to cite with high priority. The work reported in these papers was absolutely
necessary for this run to complete.
Our perspective: the developers of density functionals and basis sets usually get cited in chemistry papers
Good! But without the algorithms to do something with them, the functionals or basis sets would not do anything.
Hence, in our opinion, the algorithm design and method developments papers are equally worthy of getting cited

  1. Neese,F.
     Prediction of electron paramagnetic resonance g values using coupled perturbed Hartree-Fock and Kohn-Sham theory
     J. Chem. Phys., 2001 115(24)11080-11096
     doi.org/10.1063/1.1419058
  2. Neese,F.
     Efficient and accurate approximations to the molecular spin-orbit coupling operator and their use in molecular g-tensor calculations
     J. Chem. Phys., 2005 122(3)Art. No. 034107
     doi.org/10.1063/1.1829047
  3. Neese,F.
     The SHARK Integral Generation and Digestion System
     J. Comp. Chem., 2022  1-16
     doi.org/10.1002/jcc.26942

List of suggested additional citations. These are papers that are important in the 'surrounding' of 
of this run, or papers that preceded the highly important papers. If you like your results we are grateful for a citation.

  1. Neese,F.
     The ORCA program system
     WIRES Comput. Molec. Sci., 2012 2(1)73-78
     doi.org/10.1002/wcms.81
  2. Neese,F.
     Software update: the ORCA program system, version 4.0
     WIRES Comput. Molec. Sci., 2018 8(1)1-6
     doi.org/10.1002/wcms.1327
  3. Neese,F.; Wennmohs,F.; Becker,U.; Riplinger,C.
     The ORCA quantum chemistry program package
     J. Chem. Phys., 2020 152 Art. No. L224108
     doi.org/10.1063/5.0004608

List of optional additional citations

  1. Neese,F.
     Approximate second-order SCF convergence for spin unrestricted wavefunctions
     Chem. Phys. Lett., 2000 325(1-3)93-98
     doi.org/10.1016/s0009-2614(00)00662-x

Timings for individual modules:

Sum of individual times          ...       10.985 sec (=   0.183 min)
Startup calculation              ...        0.285 sec (=   0.005 min)   2.6 %
SCF iterations                   ...        4.656 sec (=   0.078 min)  42.4 %
Property integrals               ...        3.079 sec (=   0.051 min)  28.0 %
SCF Response                     ...        2.878 sec (=   0.048 min)  26.2 %
Property calculations            ...        0.086 sec (=   0.001 min)   0.8 %
                             ****ORCA TERMINATED NORMALLY****
TOTAL RUN TIME: 0 days 0 hours 0 minutes 11 seconds 176 msec
