
                                 *****************
                                 * O   R   C   A *
                                 *****************

                                            #,                                       
                                            ###                                      
                                            ####                                     
                                            #####                                    
                                            ######                                   
                                           ########,                                 
                                     ,,################,,,,,                         
                               ,,#################################,,                 
                          ,,##########################################,,             
                       ,#########################################, ''#####,          
                    ,#############################################,,   '####,        
                  ,##################################################,,,,####,       
                ,###########''''           ''''###############################       
              ,#####''   ,,,,##########,,,,          '''####'''          '####       
            ,##' ,,,,###########################,,,                        '##       
           ' ,,###''''                  '''############,,,                           
         ,,##''                                '''############,,,,        ,,,,,,###''
      ,#''                                            '''#######################'''  
     '                                                          ''''####''''         
             ,#######,   #######,   ,#######,      ##                                
            ,#'     '#,  ##    ##  ,#'     '#,    #''#        ,####,   ,####,        
            ##       ##  ##   ,#'  ##            #'  '#       #'       #'  '#        
            ##       ##  #######   ##           ,######,      #####,   #    #        
            '#,     ,#'  ##    ##  '#,     ,#' ,#      #,     #,   #   #,  ,#        
             '#######'   ##     ##  '#######'  #'      '#     '####' # '####'        



                #########################################################
                #                        -***-                          #
                #          Department of theory and spectroscopy        #
                #                                                       #
                #                      Frank Neese                      #
                #                                                       #
                #     Directorship, Architecture, Infrastructure        #
                #                    SHARK, DRIVERS                     #
                #        Core code/Algorithms in most modules           #
                #                                                       #
                #        Max Planck Institute fuer Kohlenforschung      #
                #                Kaiser Wilhelm Platz 1                 #
                #                 D-45470 Muelheim/Ruhr                 #
                #                      Germany                          #
                #                                                       #
                #                  All rights reserved                  #
                #                        -***-                          #
                #########################################################


                         Program Version 6.0.0  -   RELEASE  -


 With contributions from (in alphabetic order):
   Daniel Aravena         : Magnetic Suceptibility
   Michael Atanasov       : Ab Initio Ligand Field Theory (pilot matlab implementation)
   Alexander A. Auer      : GIAO ZORA, VPT2 properties, NMR spectrum
   Ute Becker             : All parallelization in ORCA, NUMFREQ, NUMCALC
   Giovanni Bistoni       : ED, misc. LED, open-shell LED, HFLD
   Martin Brehm           : Molecular dynamics
   Dmytro Bykov           : pre 5.0 version of the SCF Hessian
   Marcos Casanova-Páez   : Triplet and SCS-CIS(D). UHF-(DLPNO)-IP/EA/STEOM-CCSD. UHF-CVS-IP/STEOM-CCSD
   Vijay G. Chilkuri      : MRCI spin determinant printing, contributions to CSF-ICE
   Pauline Colinet        : FMM embedding
   Dipayan Datta          : RHF DLPNO-CCSD density
   Achintya Kumar Dutta   : EOM-CC, STEOM-CC
   Nicolas Foglia         : Exact transition moments, OPA infrastructure, MCD improvements
   Dmitry Ganyushin       : Spin-Orbit,Spin-Spin,Magnetic field MRCI
   Miquel Garcia          : C-PCM and meta-GGA Hessian, CCSD/C-PCM, Gaussian charge scheme
   Tiago L. C. Gouveia    : GS-ROHF, GS-ROCIS
   Yang Guo               : DLPNO-NEVPT2, F12-NEVPT2, CIM, IAO-localization
   Andreas Hansen         : Spin unrestricted coupled pair/coupled cluster methods
   Ingolf Harden          : AUTO-CI MPn and infrastructure 
   Benjamin Helmich-Paris : MC-RPA, TRAH-(SCF,CASSCF), AVAS, COSX integrals, SCF dyn. polar.
   Lee Huntington         : MR-EOM, pCC
   Robert Izsak           : Overlap fitted RIJCOSX, COSX-SCS-MP3, EOM
   Riya Kayal             : Wick's Theorem for AUTO-CI, AUTO-CI UHF-CCSDT
   Emily Kempfer          : AUTO-CI, RHF CISDT and CCSDT
   Christian Kollmar      : KDIIS, OOCD, Brueckner-CCSD(T), CCSD density, CASPT2, CASPT2-K, improved NEVPT2
   Axel Koslowski         : Symmetry handling
   Simone Kossmann        : Meta GGA functionals, TD-DFT gradient, OOMP2, (MP2 Hessian; deprecated post 5.0)
   Lucas Lang             : DCDCAS
   Marvin Lechner         : AUTO-CI (C++ implementation), FIC-MRCC
   Spencer Leger          : CASSCF response
   Dagmar Lenk            : GEPOL surface, SMD, ORCA-2-JSON
   Dimitrios Liakos       : Extrapolation schemes; Compound Job, initial MDCI parallelization
   Dimitrios Manganas     : Further ROCIS development; embedding schemes. LFT, Crystal Embedding
   Dimitrios Pantazis     : SARC Basis sets
   Anastasios Papadopoulos: AUTO-CI, single reference methods and gradients
   Taras Petrenko         : pre 6.0 DFT Hessian and TD-DFT gradient, (ASA, deprecated), ECA, 1-Electron XAS/XES, NRVS
   Peter Pinski           : DLPNO-MP2, DLPNO-MP2 Gradient
   Christoph Reimann      : Effective Core Potentials
   Marius Retegan         : Local ZFS, SOC
   Christoph Riplinger    : Optimizer, TS searches, QM/MM, DLPNO-CCSD(T), (RO)-DLPNO pert. Triples
   Michael Roemelt        : Original ROCIS implementation
   Masaaki Saitow         : Open-shell DLPNO-CCSD energy and density
   Barbara Sandhoefer     : DKH picture change effects
   Kantharuban Sivalingam : CASSCF convergence/infrastructure, NEVPT2 and variants, FIC-MRCI
   Bernardo de Souza      : ESD, SOC TD-DFT
   Georgi Stoychev        : AutoAux, RI-MP2 NMR, DLPNO-MP2 response, X2C
   Van Anh Tran           : RI-MP2 g-tensors
   Willem Van den Heuvel  : Paramagnetic NMR
   Zikuan Wang            : NOTCH, Electric field optimization 
   Frank Wennmohs         : Technical directorship and infrastructure
   Hang Xu                : AUTO-CI-Response properties 


 We gratefully acknowledge several colleagues who have allowed us to
 interface, adapt or use parts of their codes:
   Stefan Grimme, W. Hujo, H. Kruse, P. Pracht,  : VdW corrections, initial TS optimization,
                  C. Bannwarth, S. Ehlert,         DFT functionals, gCP, sTDA/sTD-DF
                  L. Wittmann, M. Mueller
   Ed Valeev, F. Pavosevic, A. Kumar             : LibInt (2-el integral package), F12 methods
   Garnet Chan, S. Sharma, J. Yang, R. Olivares  : DMRG
   Ulf Ekstrom                                   : XCFun DFT Library
   Mihaly Kallay                                 : mrcc  (arbitrary order and MRCC methods)
   Frank Weinhold                                : gennbo (NPA and NBO analysis)
   Simon Mueller                                 : openCOSMO-RS
   Christopher J. Cramer and Donald G. Truhlar   : smd solvation model
   Lars Goerigk                                  : TD-DFT with DH, B97 family of functionals
   V. Asgeirsson, H. Jonsson                     : NEB implementation
   FAccTs GmbH                                   : IRC, NEB, NEB-TS, DLPNO-Multilevel, CI-OPT
                                                   MM, QMMM, 2- and 3-layer-ONIOM, Crystal-QMMM,
                                                   LR-CPCM, SF, NACMEs, symmetry and pop. for TD-DFT,
                                                   nearIR, NL-DFT gradient (VV10), updates on ESD,
                                                   ML-optimized integration grids, MBIS, APM,
                                                   GOAT, DOCKER, SOLVATOR, interface openCOSMO-RS
   S Lehtola, MJT Oliveira, MAL Marques          : LibXC Library
   Liviu Ungur et al                             : ANISO software


 Your calculation uses the libint2 library for the computation of 2-el integrals
 For citations please refer to: http://libint.valeyev.net

 Your ORCA version has been built with support for libXC version: 6.2.2
 For citations please refer to: https://libxc.gitlab.io

 This ORCA versions uses:
   CBLAS   interface :  Fast vector & matrix operations
   LAPACKE interface :  Fast linear algebra routines
   SCALAPACK package :  Parallel linear algebra routines
   Shared memory     :  Shared parallel matrices
   BLAS/LAPACK       :  OpenBLAS 0.3.27  USE64BITINT DYNAMIC_ARCH NO_AFFINITY SkylakeX SINGLE_THREADED
        Core in use  :  SkylakeX
   Copyright (c) 2011-2014, The OpenBLAS Project


================================================================================

----- Orbital basis set information -----
Your calculation utilizes the basis: def2-TZVP
   F. Weigend and R. Ahlrichs, Phys. Chem. Chem. Phys. 7, 3297 (2005).

================================================================================
                                        WARNINGS
                       Please study these warnings very carefully!
================================================================================

WARNING: Old DensityContainer found on disk!
         Will remove this file - 
         If you want to keep old densities, please start your calculation with a different basename. 


WARNING: your system is open-shell and RHF/RKS was chosen
  ===> : WILL SWITCH to UHF/UKS


================================================================================
                                       INPUT FILE
================================================================================
NAME = tif3_cpks.inp
|  1> !B3LYP def2-TZVP SOMF(1X) LARGEPRINT PrintMOs
|  2> 
|  3> %METHOD
|  4>  Functional B3LYP_G
|  5>  RI false
|  6> END
|  7> 
|  8> %SCF
|  9>  MaxIter 500			# Max. no. of SCF iterations
| 10>  Thresh 1e-12			# Threshold for neglecting integrals
| 11>  TolE 1e-8			# Energy convergence threshold
| 12> END
| 13> 
| 14> %EPRNMR 			# Control of EPR and NMR calculations
| 15>  gtensor 1			# Calculate the g-tensor 
| 16>  ori CenterOfNucCharge		# origin for magnetic properties: CenterOfElCharge, CenterOfNucCharge
| 17>  printlevel 4			# detailed information
| 18> END
| 19> 
| 20> * xyz 0 2 
| 21> Ti    0.000000    0.000000    0.000000
| 22> F     1.756834    0.000000    0.000000
| 23> F    -0.878417    1.521463    0.000000
| 24> F    -0.878417   -1.521463   -0.000000
| 25> *
| 26> 
| 27> 
| 28>                          ****END OF INPUT****
================================================================================

                       ****************************
                       * Single Point Calculation *
                       ****************************

---------------------------------
CARTESIAN COORDINATES (ANGSTROEM)
---------------------------------
  Ti     0.000000    0.000000    0.000000
  F      1.756834    0.000000    0.000000
  F     -0.878417    1.521463    0.000000
  F     -0.878417   -1.521463   -0.000000

----------------------------
CARTESIAN COORDINATES (A.U.)
----------------------------
  NO LB      ZA    FRAG     MASS         X           Y           Z
   0 Ti   22.0000    0    47.900    0.000000    0.000000    0.000000
   1 F     9.0000    0    18.998    3.319935    0.000000    0.000000
   2 F     9.0000    0    18.998   -1.659968    2.875148    0.000000
   3 F     9.0000    0    18.998   -1.659968   -2.875148   -0.000000

--------------------------------
INTERNAL COORDINATES (ANGSTROEM)
--------------------------------
 Ti     0   0   0     0.000000000000     0.00000000     0.00000000
 F      1   0   0     1.756834000000     0.00000000     0.00000000
 F      1   2   0     1.756834108918   119.99999795     0.00000000
 F      1   2   3     1.756834108918   119.99999795   180.00000000

---------------------------
INTERNAL COORDINATES (A.U.)
---------------------------
 Ti     0   0   0     0.000000000000     0.00000000     0.00000000
 F      1   0   0     3.319935122761     0.00000000     0.00000000
 F      1   2   0     3.319935328587   119.99999795     0.00000000
 F      1   2   3     3.319935328587   119.99999795   180.00000000

---------------------
BASIS SET INFORMATION
---------------------
There are 2 groups of distinct atoms

 Group   1 Type Ti  : 17s11p7d1f contracted to 6s4p4d1f pattern {842111/6311/4111/1}
 Group   2 Type F   : 11s6p2d1f contracted to 5s3p2d1f pattern {62111/411/11/1}

Atom   0Ti   basis set group =>   1
Atom   1F    basis set group =>   2
Atom   2F    basis set group =>   2
Atom   3F    basis set group =>   2

-------------------------
BASIS SET IN INPUT FORMAT
-------------------------

 # Basis set for element : F 
 NewGTO F 
 S 6 
   1   35479.1004410000      0.0005618498
   2    5318.4728983000      0.0043551975
   3    1210.4810975000      0.0226182470
   4     342.8551814000      0.0914030552
   5     112.0194318100      0.2911687068
   6      40.7147402480      0.6777270857
 S 2 
   1      16.0396781110      0.6329641788
   2       6.5038186740      0.4013647573
 S 1 
   1       1.5440477509      1.0000000000
 S 1 
   1       0.6122345286      1.0000000000
 S 1 
   1       0.2402797970      1.0000000000
 P 4 
   1      80.2339004830      0.0123213451
   2      18.5940107430      0.0857133953
   3       5.6867902653      0.3263310551
   4       1.9511006294      0.6997111464
 P 1 
   1       0.6697021130      1.0000000000
 P 1 
   1       0.2165130041      1.0000000000
 D 1 
   1       3.1070000000      1.0000000000
 D 1 
   1       0.8550000000      1.0000000000
 F 1 
   1       1.9170000000      1.0000000000
  end;

 # Basis set for element : Ti
 NewGTO Ti
 S 8 
   1  211575.6902500000      0.0002457308
   2   31714.9450580000      0.0019052697
   3    7217.5476543000      0.0099042323
   4    2042.9394247000      0.0402103648
   5     665.1289620800      0.1304073723
   6     238.7494226400      0.3078048597
   7      92.5086910010      0.4344552934
   8      36.4039192090      0.2222557650
 S 4 
   1     232.7262460700     -0.0240147944
   2      71.7912097110     -0.1131974123
   3      11.1585346150      0.5445058130
   4       4.6548135416      0.5416895786
 S 2 
   1       6.8034629174     -0.3733792729
   2       1.1201076403      1.1699334072
 S 1 
   1       0.4808011884      1.0000000000
 S 1 
   1       0.0851572750      1.0000000000
 S 1 
   1       0.0326574770      1.0000000000
 P 6 
   1    1063.1474732000      0.0028992230
   2     251.5650706100      0.0232180600
   3      80.4085548540      0.1068389919
   4      29.7681932690      0.3001269061
   5      11.7368305560      0.4754304274
   6       4.7142375230      0.2782103017
 P 3 
   1      17.7968037040     -0.0189188930
   2       2.4272698680      0.3778053478
   3       0.9682344554      0.6823788203
 P 1 
   1       0.3705669416      1.0000000000
 D 4 
   1      37.7133847230      0.0196729083
   2      10.6929311840      0.1148992625
   3       3.6728446990      0.3670860721
   4       1.3588590303      0.6645022811
 D 1 
   1       0.4921329525      1.0000000000
 D 1 
   1       0.1633052065      1.0000000000
 P 1 
   1       0.1015610000      1.0000000000
 D 1 
   1       0.0540000000      1.0000000000
 F 1 
   1       0.5620000000      1.0000000000
  end;


Checking for AutoStart:
The File: tif3_cpks.gbw exists
Trying to determine its content:
     ... Fine, the file contains calculation information
     ... Fine, the calculation information was read
     ... Fine, the file contains a basis set
     ... Fine, the basis set was read
     ... Fine, the file contains a geometry
     ... Fine, the geometry was read
     ... Fine, the file contains a set of orbitals
     ... Fine, the orbitals can be read
     => possible old guess file was deleted
     => GBW file was renamed to GES file
     => GES file is set as startup file
     => Guess is set to MORead
     ... now leaving AutoStart

------------------------------------------------------------------------------
                             ORCA STARTUP CALCULATIONS
------------------------------------------------------------------------------
------------------------------------------------------------------------------
                   ___                                                        
                  /   \      - P O W E R E D   B Y -                         
                 /     \                                                     
                 |  |  |   _    _      __       _____    __    __             
                 |  |  |  | |  | |    /  \     |  _  \  |  |  /  |          
                  \  \/   | |  | |   /    \    | | | |  |  | /  /          
                 / \  \   | |__| |  /  /\  \   | |_| |  |  |/  /          
                |  |  |   |  __  | /  /__\  \  |    /   |      \           
                |  |  |   | |  | | |   __   |  |    \   |  |\   \          
                \     /   | |  | | |  |  |  |  | |\  \  |  | \   \       
                 \___/    |_|  |_| |__|  |__|  |_| \__\ |__|  \__/        
                                                                              
                      - O R C A' S   B I G   F R I E N D -                    
                                      &                                       
                       - I N T E G R A L  F E E D E R -                       
                                                                              
 v1 FN, 2020, v2 2021, v3 2022-2024                                           
------------------------------------------------------------------------------


----------------------
SHARK INTEGRAL PACKAGE
----------------------

Number of atoms                             ...      4
Number of basis functions                   ...    138
Number of shells                            ...     48
Maximum angular momentum                    ...      3
Integral batch strategy                     ... SHARK/LIBINT Hybrid
RI-J (if used) integral strategy            ... SPLIT-RIJ (Revised 2003 algorithm where possible)
Printlevel                                  ...      1
Contraction scheme used                     ... SEGMENTED contraction
Prescreening option                         ... SCHWARTZ
   Thresh                                   ... 1.000e-12
   Tcut                                     ... 1.000e-11
   Tpresel                                  ... 1.000e-11 
Coulomb Range Separation                    ... NOT USED
Exchange Range Separation                   ... NOT USED
Multipole approximations                    ... NOT USED
Finite Nucleus Model                        ... NOT USED
CABS basis                                  ... NOT available
Auxiliary Coulomb fitting basis             ... NOT available
Auxiliary J/K fitting basis                 ... NOT available
Auxiliary Correlation fitting basis         ... NOT available
Auxiliary 'external' fitting basis          ... NOT available

Checking pre-screening integrals            ... done (  0.0 sec) Dimension = 48
Check shell pair data                       ... done (  0.0 sec)
Shell pair information
Shell pair cut-off parameter TPreSel        ...   1.0e-11
Total number of shell pairs                 ...      1176
Shell pairs after pre-screening             ...      1056
Total number of primitive shell pairs       ...      4781
Primitive shell pairs kept                  ...      3335
          la=0 lb=0:    192 shell pairs
          la=1 lb=0:    249 shell pairs
          la=1 lb=1:     88 shell pairs
          la=2 lb=0:    189 shell pairs
          la=2 lb=1:    124 shell pairs
          la=2 lb=2:     52 shell pairs
          la=3 lb=0:     72 shell pairs
          la=3 lb=1:     46 shell pairs
          la=3 lb=2:     34 shell pairs
          la=3 lb=3:     10 shell pairs

Calculating one electron integrals          ... done (  0.0 sec)
Calculating Nuclear repulsion               ... done (  0.0 sec) ENN=    221.177841708238 Eh

Diagonalization of the overlap matrix:
Smallest eigenvalue                        ... 6.194e-03
Time for diagonalization                   ...    0.003 sec
Threshold for overlap eigenvalues          ... 1.000e-07
Number of eigenvalues below threshold      ... 0
Time for construction of square roots      ...    0.002 sec
Total time needed                          ...    0.007 sec

-------------------
DFT GRID GENERATION
-------------------

General Integration Accuracy     IntAcc      ... 4.388
Radial Grid Type                 RadialGrid  ... OptM3 with GC (2021)
Angular Grid (max. ang.)         AngularGrid ... 4 (Lebedev-302)
Angular grid pruning method      GridPruning ... 4 (adaptive)
Weight generation scheme         WeightScheme... mBecke (2022)
Basis function cutoff            BFCut       ... 1.0000e-10
Integration weight cutoff        WCut        ... 1.0000e-14
Partially contracted basis set               ... off
Rotationally invariant grid construction     ... off
Angular grids for H and He will be reduced by one unit
Core-polarized basis detected: some atoms will have their core
                               angular grid increased.

Total number of grid points                  ...    29700
Total number of batches                      ...      466
Average number of points per batch           ...       63
Average number of grid points per atom       ...     7425
Initializing property integral containers    ... done (  0.0 sec)

SHARK setup successfully completed in   0.4 seconds

Maximum memory used throughout the entire STARTUP-calculation: 16.0 MB
-------------------------------------------------------------------------------
                                 ORCA GUESS
                   Start orbitals & Density for SCF / CASSCF
-------------------------------------------------------------------------------

------------
SCF SETTINGS
------------
Hamiltonian:
 Density Functional     Method          .... DFT(GTOs)
 Exchange Functional    Exchange        .... B88
   X-Alpha parameter    XAlpha          ....  0.666667
   Becke's b parameter  XBeta           ....  0.004200
 Correlation Functional Correlation     .... LYP
 LDA part of GGA corr.  LDAOpt          .... VWN-3
 Gradients option       PostSCFGGA      .... off
 Hybrid DFT is turned on
   Fraction HF Exchange ScalHFX         ....  0.200000
   Scaling of DF-GGA-X  ScalDFX         ....  0.720000
   Scaling of DF-GGA-C  ScalDFC         ....  0.810000
   Scaling of DF-LDA-C  ScalLDAC        ....  1.000000
   Perturbative correction              ....  0.000000
   NL short-range parameter             ....  4.800000


General Settings:
 Integral files         IntName         .... tif3_cpks
 Hartree-Fock type      HFTyp           .... UHF
 Total Charge           Charge          ....    0
 Multiplicity           Mult            ....    2
 Number of Electrons    NEL             ....   49
 Basis Dimension        Dim             ....  138
 Nuclear Repulsion      ENuc            ....    221.1778417082 Eh

Convergence Acceleration:
 AO-DIIS                CNVDIIS         .... on
   Start iteration      DIISMaxIt       ....    12
   Startup error        DIISStart       ....  0.200000
   # of expansion vecs  DIISMaxEq       ....     5
   Bias factor          DIISBfac        ....   1.050
   Max. coefficient     DIISMaxC        ....  10.000
 MO-DIIS                CNVKDIIS        .... off
 Trust-Rad. Augm. Hess. CNVTRAH         .... auto
   Auto Start mean grad. ratio tolernc. ....  1.125000
   Auto Start start iteration           ....     1
   Auto Start num. interpolation iter.  ....    10
   Max. Number of Micro iterations      ....    24
   Max. Number of Macro iterations      .... Maxiter - #DIIS iter
   Number of Davidson start vectors     ....     2
   Converg. threshold    (grad. norm)   ....   5.000e-05
   Grad. Scal. Fac. for Micro threshold ....   0.100
   Minimum threshold for Micro iter.    ....   1.000e-02
   NR start threshold (gradient norm)   ....   1.000e-04
   Initial trust radius                 ....   0.400
   Minimum AH scaling param. (alpha)    ....   1.000
   Maximum AH scaling param. (alpha)    .... 1000.000
   Quad. conv. algorithm                .... NR
   White noise on init. David. guess    .... on
   Maximum white noise                  ....   0.010
   Pseudo random numbers                .... off
   Inactive MOs                         .... canonical
   Orbital update algorithm             .... Taylor
   Preconditioner                       .... Diag
   Full preconditioner red. dimension   ....   250
 SOSCF                  CNVSOSCF        .... on
   Start iteration      SOSCFMaxIt      ....   150
   Startup grad/error   SOSCFStart      ....  0.003300
   Hessian update       SOSCFHessUp     .... L-BFGS
 Level Shifting         CNVShift        .... on
   Level shift para.    LevelShift      ....    0.2500
   Turn off err/grad.   ShiftErr        ....    0.0010
 Zerner damping         CNVZerner       .... off
 Static damping         CNVDamp         .... on
   Fraction old density DampFac         ....    0.7000
   Max. Damping (<1)    DampMax         ....    0.9800
   Min. Damping (>=0)   DampMin         ....    0.0000
   Turn off err/grad.   DampErr         ....    0.1000

SCF Procedure:
 Maximum # iterations   MaxIter         ....   500
 SCF integral mode      SCFMode         .... Direct
   Integral package                     .... SHARK and LIBINT hybrid scheme
 Reset frequency        DirectResetFreq ....    20
 Integral Threshold     Thresh          ....  1.000e-12 Eh
 Primitive CutOff       TCut            ....  1.000e-11 Eh

Convergence Tolerance:
 Convergence Check Mode ConvCheckMode   .... Total+1el-Energy
 Convergence forced     ConvForced      .... 0
 Energy Change          TolE            ....  1.000e-08 Eh
 1-El. energy change                    ....  1.000e-05 Eh
 Orbital Gradient       TolG            ....  5.000e-05
 Orbital Rotation angle TolX            ....  5.000e-05
 DIIS Error             TolErr          ....  1.000e-06

---------------------
INITIAL GUESS: MOREAD
---------------------
Guess MOs are being read from file: tif3_cpks.ges
Input Geometry matches current geometry (good)
Input basis set matches current basis set (good)
MOs were renormalized
MOs were reorthogonalized (Cholesky)
                      ------------------
                      INITIAL GUESS DONE (   0.0 sec)
                      ------------------
----------------------
INITIAL GUESS ORBITALS
----------------------
                      0         1         2         3         4         5   
                 -178.93815 -24.68671 -24.68670 -24.68670 -19.97141 -16.68215
                   1.00000   1.00000   1.00000   1.00000   1.00000   1.00000
                  --------  --------  --------  --------  --------  --------
  0Ti  1s         0.997850  0.000013 -0.000000 -0.000003  0.306081 -0.000000
  0Ti  2s         0.006740 -0.000004  0.000000  0.000001 -1.034447  0.000000
  0Ti  3s        -0.003119  0.000216 -0.000000 -0.000052 -0.051788  0.000000
  0Ti  4s         0.002335 -0.000169  0.000000  0.000041  0.023384 -0.000000
  0Ti  5s         0.000161  0.005943 -0.000000 -0.001431  0.000715  0.000000
  0Ti  6s         0.000014 -0.000751  0.000000  0.000181  0.000278 -0.000000
  0Ti  1pz       -0.000000 -0.000000  0.000000 -0.000000 -0.000000 -0.000000
  0Ti  1px       -0.000000  0.000008  0.000000  0.000034  0.000000  0.000000
  0Ti  1py       -0.000000  0.000000  0.000035 -0.000000 -0.000000 -0.989935
  0Ti  2pz        0.000000 -0.000000 -0.000000  0.000000  0.000000 -0.000000
  0Ti  2px       -0.000000 -0.000046 -0.000000 -0.000191  0.000000  0.000000
  0Ti  2py        0.000000 -0.000000 -0.000197  0.000000 -0.000000 -0.029776
  0Ti  3pz       -0.000000  0.000000  0.000000 -0.000000 -0.000000  0.000000
  0Ti  3px        0.000000 -0.000021  0.000000 -0.000085 -0.000000 -0.000000
  0Ti  3py        0.000000 -0.000000 -0.000088 -0.000000  0.000000  0.012076
  0Ti  1dz2       0.000055 -0.000160  0.000000  0.000039  0.000412  0.000000
  0Ti  1dxz       0.000000  0.000000 -0.000000  0.000000 -0.000000  0.000000
  0Ti  1dyz       0.000000  0.000000  0.000000  0.000000 -0.000000 -0.000000
  0Ti  1dx2y2    -0.000000 -0.000045 -0.000000 -0.000187  0.000000  0.000000
  0Ti  1dxy       0.000000  0.000000  0.000192 -0.000000  0.000000  0.000405
  0Ti  2dz2      -0.000181  0.000383 -0.000000 -0.000092 -0.001361 -0.000000
  0Ti  2dxz       0.000000 -0.000000  0.000000 -0.000000 -0.000000 -0.000000
  0Ti  2dyz       0.000000 -0.000000 -0.000000 -0.000000  0.000000  0.000000
  0Ti  2dx2y2     0.000000  0.000127  0.000000  0.000526 -0.000000 -0.000000
  0Ti  2dxy      -0.000000 -0.000000 -0.000541  0.000000 -0.000000 -0.001128
  0Ti  3dz2      -0.000128 -0.001159  0.000000  0.000279 -0.001053 -0.000000
  0Ti  3dxz       0.000000  0.000000 -0.000000  0.000000 -0.000000  0.000000
  0Ti  3dyz      -0.000000  0.000000  0.000000 -0.000000  0.000000  0.000000
  0Ti  3dx2y2     0.000000 -0.000362 -0.000000 -0.001504  0.000000 -0.000000
  0Ti  3dxy      -0.000000  0.000000  0.001547 -0.000000  0.000000 -0.002962
  0Ti  4pz        0.000000 -0.000000 -0.000000  0.000000 -0.000000 -0.000000
  0Ti  4px        0.000000 -0.000853 -0.000000 -0.003541  0.000000 -0.000000
  0Ti  4py        0.000000 -0.000000 -0.003642  0.000000 -0.000000  0.000859
  0Ti  4dz2       0.000042 -0.000230  0.000000  0.000055  0.000372  0.000000
  0Ti  4dxz       0.000000 -0.000000 -0.000000 -0.000000  0.000000 -0.000000
  0Ti  4dyz      -0.000000 -0.000000 -0.000000  0.000000 -0.000000 -0.000000
  0Ti  4dx2y2    -0.000000 -0.000121 -0.000000 -0.000503 -0.000000  0.000000
  0Ti  4dxy      -0.000000  0.000000  0.000518 -0.000000  0.000000  0.000574
  0Ti  1f0       -0.000000 -0.000000 -0.000000 -0.000000 -0.000000 -0.000000
  0Ti  1f+1      -0.000000 -0.000047 -0.000000 -0.000194  0.000000  0.000000
  0Ti  1f-1      -0.000000 -0.000000 -0.000200  0.000000  0.000000 -0.000839
  0Ti  1f+2      -0.000000  0.000000  0.000000 -0.000000 -0.000000 -0.000000
  0Ti  1f-2       0.000000 -0.000000  0.000000  0.000000  0.000000  0.000000
  0Ti  1f+3      -0.000196  0.000545 -0.000000 -0.000131 -0.001509 -0.000000
  0Ti  1f-3      -0.000000 -0.000000 -0.000000  0.000000  0.000000  0.000000
  1F   1s         0.000003 -0.157466  0.000000  0.395099  0.000004 -0.000000
  1F   2s        -0.000011 -0.240281  0.000000  0.602937 -0.000055  0.000000
  1F   3s         0.000037 -0.012344  0.000000  0.030617  0.000286 -0.000000
  1F   4s         0.000083  0.007446 -0.000000 -0.017750  0.000575 -0.000000
  1F   5s        -0.000342 -0.004337  0.000000  0.010587 -0.002582  0.000000
  1F   1pz       -0.000000  0.000000  0.000000 -0.000000  0.000000  0.000000
  1F   1px       -0.000048  0.000283 -0.000000 -0.000589 -0.000337  0.000000
  1F   1py       -0.000000  0.000000  0.000002 -0.000000  0.000000  0.000009
  1F   2pz        0.000000 -0.000000 -0.000000  0.000000 -0.000000 -0.000000
  1F   2px        0.000109 -0.000559  0.000000  0.000833  0.000849 -0.000000
  1F   2py        0.000000 -0.000000 -0.000032  0.000000 -0.000000 -0.000016
  1F   3pz       -0.000000  0.000000  0.000000 -0.000000  0.000000  0.000000
  1F   3px        0.000199  0.001209 -0.000000 -0.001935  0.001553 -0.000000
  1F   3py       -0.000000 -0.000000  0.000005  0.000000 -0.000000  0.000313
  1F   1dz2      -0.000029 -0.000026  0.000000 -0.000028 -0.000174  0.000000
  1F   1dxz      -0.000000 -0.000000 -0.000000 -0.000000  0.000000 -0.000000
  1F   1dyz      -0.000000 -0.000000 -0.000000 -0.000000 -0.000000 -0.000000
  1F   1dx2y2     0.000049 -0.000020  0.000000  0.000020  0.000296 -0.000000
  1F   1dxy      -0.000000  0.000000  0.000008 -0.000000 -0.000000 -0.000031
  1F   2dz2       0.000088  0.000081 -0.000000  0.000057  0.000644 -0.000000
  1F   2dxz      -0.000000  0.000000  0.000000  0.000000 -0.000000  0.000000
  1F   2dyz       0.000000  0.000000  0.000000  0.000000 -0.000000  0.000000
  1F   2dx2y2    -0.000150  0.000056 -0.000000 -0.000016 -0.001093  0.000000
  1F   2dxy      -0.000000 -0.000000 -0.000018  0.000000  0.000000  0.000111
  1F   1f0        0.000000  0.000000  0.000000  0.000000  0.000000  0.000000
  1F   1f+1      -0.000024  0.000004 -0.000000 -0.000022 -0.000158  0.000000
  1F   1f-1      -0.000000 -0.000000 -0.000001  0.000000 -0.000000  0.000019
  1F   1f+2      -0.000000 -0.000000 -0.000000  0.000000 -0.000000 -0.000000
  1F   1f-2       0.000000 -0.000000 -0.000000 -0.000000  0.000000 -0.000000
  1F   1f+3      -0.000032  0.000030 -0.000000 -0.000020 -0.000212  0.000000
  1F   1f-3       0.000000 -0.000000 -0.000010  0.000000 -0.000000  0.000071
  2F   1s         0.000003 -0.279379  0.300747 -0.111343  0.000004  0.000003
  2F   2s        -0.000011 -0.426326  0.458956 -0.169921 -0.000055 -0.000016
  2F   3s         0.000037 -0.021779  0.023276 -0.008580  0.000286  0.000149
  2F   4s         0.000083  0.012893 -0.013435  0.004875  0.000575  0.000910
  2F   5s        -0.000342 -0.007594  0.008035 -0.002943 -0.002582 -0.004681
  2F   1pz       -0.000000  0.000000 -0.000000 -0.000000 -0.000000  0.000000
  2F   1px        0.000024 -0.000230  0.000220 -0.000073  0.000168  0.000134
  2F   1py       -0.000042  0.000399 -0.000380  0.000131 -0.000292 -0.000224
  2F   2pz       -0.000000 -0.000000  0.000000  0.000000  0.000000 -0.000000
  2F   2px       -0.000055  0.000392 -0.000308  0.000055 -0.000424 -0.000536
  2F   2py        0.000095 -0.000694  0.000501 -0.000150  0.000735  0.000912
  2F   3pz        0.000000  0.000000 -0.000000 -0.000000 -0.000000  0.000000
  2F   3px       -0.000099 -0.000884  0.000694 -0.000194 -0.000777 -0.001100
  2F   3py        0.000172  0.001533 -0.001197  0.000345  0.001345  0.002219
  2F   1dz2      -0.000029 -0.000014 -0.000029  0.000021 -0.000174 -0.000097
  2F   1dxz       0.000000 -0.000000  0.000000 -0.000000 -0.000000  0.000000
  2F   1dyz      -0.000000 -0.000000 -0.000000 -0.000000 -0.000000 -0.000000
  2F   1dx2y2    -0.000024  0.000012 -0.000011 -0.000005 -0.000148 -0.000085
  2F   1dxy      -0.000042  0.000023 -0.000009  0.000005 -0.000256 -0.000178
  2F   2dz2       0.000088  0.000055  0.000064 -0.000051  0.000644  0.000507
  2F   2dxz       0.000000  0.000000  0.000000  0.000000  0.000000 -0.000000
  2F   2dyz       0.000000  0.000000  0.000000  0.000000  0.000000  0.000000
  2F   2dx2y2     0.000075 -0.000025  0.000009  0.000019  0.000546  0.000439
  2F   2dxy       0.000130 -0.000051 -0.000003  0.000003  0.000947  0.000872
  2F   1f0       -0.000000 -0.000000  0.000000  0.000000  0.000000  0.000000
  2F   1f+1       0.000012 -0.000006  0.000009 -0.000005  0.000079  0.000048
  2F   1f-1      -0.000020  0.000009 -0.000016  0.000007 -0.000137 -0.000064
  2F   1f+2      -0.000000  0.000000  0.000000  0.000000 -0.000000  0.000000
  2F   1f-2      -0.000000 -0.000000  0.000000 -0.000000  0.000000  0.000000
  2F   1f+3      -0.000032  0.000034 -0.000010 -0.000002 -0.000212 -0.000106
  2F   1f-3      -0.000000  0.000002  0.000005  0.000008 -0.000000 -0.000035
  3F   1s         0.000003 -0.279379 -0.300747 -0.111343  0.000004 -0.000003
  3F   2s        -0.000011 -0.426326 -0.458956 -0.169921 -0.000055  0.000016
  3F   3s         0.000037 -0.021779 -0.023276 -0.008580  0.000286 -0.000149
  3F   4s         0.000083  0.012893  0.013435  0.004875  0.000575 -0.000910
  3F   5s        -0.000342 -0.007594 -0.008035 -0.002943 -0.002582  0.004681
  3F   1pz        0.000000  0.000000  0.000000  0.000000 -0.000000  0.000000
  3F   1px        0.000024 -0.000230 -0.000220 -0.000073  0.000168 -0.000134
  3F   1py        0.000042 -0.000399 -0.000380 -0.000131  0.000292 -0.000224
  3F   2pz        0.000000 -0.000000 -0.000000 -0.000000  0.000000 -0.000000
  3F   2px       -0.000055  0.000392  0.000308  0.000055 -0.000424  0.000536
  3F   2py       -0.000095  0.000694  0.000501  0.000150 -0.000735  0.000912
  3F   3pz       -0.000000  0.000000  0.000000 -0.000000 -0.000000  0.000000
  3F   3px       -0.000099 -0.000884 -0.000694 -0.000194 -0.000777  0.001100
  3F   3py       -0.000172 -0.001533 -0.001197 -0.000345 -0.001345  0.002219
  3F   1dz2      -0.000029 -0.000014  0.000029  0.000021 -0.000174  0.000097
  3F   1dxz      -0.000000 -0.000000  0.000000  0.000000  0.000000  0.000000
  3F   1dyz      -0.000000  0.000000  0.000000  0.000000  0.000000  0.000000
  3F   1dx2y2    -0.000024  0.000012  0.000011 -0.000005 -0.000148  0.000085
  3F   1dxy       0.000042 -0.000023 -0.000009 -0.000005  0.000256 -0.000178
  3F   2dz2       0.000088  0.000055 -0.000064 -0.000051  0.000644 -0.000507
  3F   2dxz      -0.000000  0.000000  0.000000 -0.000000  0.000000 -0.000000
  3F   2dyz      -0.000000  0.000000 -0.000000 -0.000000  0.000000 -0.000000
  3F   2dx2y2     0.000075 -0.000025 -0.000009  0.000019  0.000546 -0.000439
  3F   2dxy      -0.000130  0.000051 -0.000003 -0.000003 -0.000947  0.000872
  3F   1f0        0.000000 -0.000000  0.000000  0.000000  0.000000  0.000000
  3F   1f+1       0.000012 -0.000006 -0.000009 -0.000005  0.000079 -0.000048
  3F   1f-1       0.000020 -0.000009 -0.000016 -0.000007  0.000137 -0.000064
  3F   1f+2       0.000000  0.000000  0.000000  0.000000  0.000000  0.000000
  3F   1f-2      -0.000000 -0.000000 -0.000000  0.000000  0.000000 -0.000000
  3F   1f+3      -0.000032  0.000034  0.000010 -0.000002 -0.000212  0.000106
  3F   1f-3       0.000000 -0.000002  0.000005 -0.000008  0.000000 -0.000035
                      6         7         8         9        10        11   
                 -16.68215 -16.68199  -2.45947  -1.58480  -1.58479  -1.56905
                   1.00000   1.00000   1.00000   1.00000   1.00000   1.00000
                  --------  --------  --------  --------  --------  --------
  0Ti  1s        -0.000000  0.000000 -0.110509 -0.000000  0.000000 -0.000000
  0Ti  2s         0.000000 -0.000000  0.442622  0.000000 -0.000000  0.000000
  0Ti  3s        -0.000000 -0.000000 -0.631153  0.000000 -0.000000 -0.000000
  0Ti  4s         0.000000  0.000000 -0.460539 -0.000000  0.000000  0.000000
  0Ti  5s        -0.000000  0.000000 -0.010597 -0.000000  0.000001 -0.000000
  0Ti  6s         0.000000  0.000000  0.003079  0.000000 -0.000000  0.000000
  0Ti  1pz        0.000000  0.990181 -0.000000 -0.000000 -0.000000  0.360387
  0Ti  1px        0.989935 -0.000000 -0.000000  0.000000 -0.349847 -0.000000
  0Ti  1py        0.000000 -0.000000  0.000000 -0.349847 -0.000000 -0.000000
  0Ti  2pz        0.000000  0.028366  0.000000  0.000000  0.000000 -0.868107
  0Ti  2px        0.029776 -0.000000  0.000000 -0.000000  0.843573  0.000000
  0Ti  2py        0.000000 -0.000000 -0.000000  0.843573  0.000000  0.000000
  0Ti  3pz       -0.000000 -0.008414  0.000000  0.000000  0.000000 -0.252609
  0Ti  3px       -0.012076  0.000000 -0.000000 -0.000000  0.236668  0.000000
  0Ti  3py       -0.000000  0.000000  0.000000  0.236669  0.000000  0.000000
  0Ti  1dz2       0.000000 -0.000000  0.002772 -0.000000 -0.000000  0.000000
  0Ti  1dxz       0.000000 -0.000000 -0.000000 -0.000000 -0.000000  0.000000
  0Ti  1dyz      -0.000000 -0.000000 -0.000000 -0.000000 -0.000000  0.000000
  0Ti  1dx2y2     0.000405 -0.000000  0.000000 -0.000000  0.002939  0.000000
  0Ti  1dxy      -0.000000  0.000000  0.000000 -0.002940 -0.000000  0.000000
  0Ti  2dz2      -0.000000 -0.000000 -0.002267 -0.000000  0.000001  0.000000
  0Ti  2dxz      -0.000000  0.000000 -0.000000  0.000000 -0.000000 -0.000001
  0Ti  2dyz       0.000000  0.000000 -0.000000 -0.000000  0.000000 -0.000000
  0Ti  2dx2y2    -0.001128  0.000000  0.000000 -0.000000  0.003518 -0.000000
  0Ti  2dxy       0.000000 -0.000000 -0.000000 -0.003518 -0.000000 -0.000000
  0Ti  3dz2       0.000000  0.000000 -0.002408  0.000000 -0.000000  0.000000
  0Ti  3dxz       0.000000 -0.000000  0.000000 -0.000000  0.000000 -0.000000
  0Ti  3dyz      -0.000000 -0.000000  0.000000  0.000000 -0.000000 -0.000000
  0Ti  3dx2y2    -0.002962  0.000000 -0.000000  0.000000 -0.000928  0.000000
  0Ti  3dxy       0.000000 -0.000000  0.000000  0.000927  0.000000 -0.000000
  0Ti  4pz        0.000000  0.002312 -0.000000 -0.000000 -0.000000 -0.010228
  0Ti  4px       -0.000859  0.000000 -0.000000 -0.000000  0.004625  0.000000
  0Ti  4py       -0.000000  0.000000 -0.000000  0.004625  0.000000  0.000000
  0Ti  4dz2      -0.000000 -0.000000  0.000943  0.000000  0.000000  0.000000
  0Ti  4dxz      -0.000000  0.000000 -0.000000 -0.000000 -0.000000 -0.000000
  0Ti  4dyz       0.000000  0.000000  0.000000  0.000000 -0.000000 -0.000000
  0Ti  4dx2y2     0.000574 -0.000000  0.000000 -0.000000  0.000411  0.000000
  0Ti  4dxy      -0.000000  0.000000  0.000000 -0.000411 -0.000000  0.000000
  0Ti  1f0        0.000000  0.000269  0.000000 -0.000000 -0.000000 -0.007109
  0Ti  1f+1       0.000839 -0.000000 -0.000000  0.000000 -0.002587  0.000000
  0Ti  1f-1       0.000000 -0.000000  0.000000 -0.002587 -0.000000  0.000000
  0Ti  1f+2       0.000000 -0.000000 -0.000000 -0.000000  0.000000 -0.000000
  0Ti  1f-2       0.000000  0.000000 -0.000000  0.000000  0.000000  0.000000
  0Ti  1f+3       0.000000 -0.000000 -0.000721 -0.000000  0.000001  0.000000
  0Ti  1f-3       0.000000 -0.000000 -0.000000 -0.000000  0.000000 -0.000000
  1F   1s        -0.000003  0.000000  0.001825  0.000000 -0.014969 -0.000000
  1F   2s         0.000019 -0.000000  0.004253  0.000000 -0.035873 -0.000000
  1F   3s        -0.000171  0.000000 -0.004624 -0.000000  0.047077  0.000000
  1F   4s        -0.001051  0.000000 -0.008151 -0.000000  0.069746 -0.000000
  1F   5s         0.005405 -0.000000 -0.003975 -0.000000  0.024259  0.000000
  1F   1pz       -0.000000 -0.000065  0.000000  0.000000  0.000000 -0.004623
  1F   1px        0.000301 -0.000000  0.004934  0.000000 -0.026792 -0.000000
  1F   1py       -0.000000  0.000000 -0.000000  0.004188  0.000000  0.000000
  1F   2pz        0.000000  0.000209  0.000000 -0.000000  0.000000 -0.004603
  1F   2px       -0.001221  0.000000  0.005727  0.000000 -0.025293 -0.000000
  1F   2py        0.000000 -0.000000  0.000000  0.003802  0.000000  0.000000
  1F   3pz       -0.000000 -0.000144 -0.000000  0.000000  0.000000 -0.000553
  1F   3px       -0.002854  0.000000  0.002493  0.000000 -0.005711 -0.000000
  1F   3py       -0.000000  0.000000 -0.000000  0.000896  0.000000 -0.000000
  1F   1dz2       0.000112 -0.000000  0.000080  0.000000 -0.000426  0.000000
  1F   1dxz       0.000000  0.000090  0.000000 -0.000000 -0.000000  0.000151
  1F   1dyz      -0.000000 -0.000000 -0.000000  0.000000 -0.000000 -0.000000
  1F   1dx2y2    -0.000227  0.000000 -0.000179 -0.000000  0.000727 -0.000000
  1F   1dxy       0.000000 -0.000000  0.000000 -0.000197 -0.000000  0.000000
  1F   2dz2      -0.000586  0.000000  0.001356  0.000000 -0.003662 -0.000000
  1F   2dxz      -0.000000 -0.000317 -0.000000 -0.000000  0.000000  0.002143
  1F   2dyz       0.000000  0.000000  0.000000 -0.000000  0.000000  0.000000
  1F   2dx2y2     0.001126 -0.000000 -0.002194 -0.000000  0.006492  0.000000
  1F   2dxy      -0.000000  0.000000  0.000000 -0.001683 -0.000000 -0.000000
  1F   1f0       -0.000000 -0.000052  0.000000 -0.000000  0.000000  0.000333
  1F   1f+1       0.000092 -0.000000 -0.000304 -0.000000  0.001041 -0.000000
  1F   1f-1      -0.000000  0.000000  0.000000 -0.000113 -0.000000  0.000000
  1F   1f+2       0.000000  0.000066 -0.000000  0.000000 -0.000000 -0.000435
  1F   1f-2      -0.000000  0.000000  0.000000 -0.000000  0.000000 -0.000000
  1F   1f+3       0.000122 -0.000000 -0.000382 -0.000000  0.001370 -0.000000
  1F   1f-3      -0.000000  0.000000  0.000000 -0.000439 -0.000000  0.000000
  2F   1s         0.000002  0.000000  0.001825 -0.012964  0.007485 -0.000000
  2F   2s        -0.000010 -0.000000  0.004253 -0.031067  0.017936 -0.000000
  2F   3s         0.000086  0.000000 -0.004624  0.040770 -0.023539  0.000000
  2F   4s         0.000525  0.000000 -0.008151  0.060402 -0.034872 -0.000000
  2F   5s        -0.002702 -0.000000 -0.003975  0.021008 -0.012131  0.000000
  2F   1pz       -0.000000 -0.000065  0.000000  0.000000  0.000000 -0.004623
  2F   1px        0.000068  0.000000 -0.002467  0.013415 -0.003557  0.000000
  2F   1py       -0.000134 -0.000000  0.004273 -0.019047  0.013415 -0.000000
  2F   2pz        0.000000  0.000209 -0.000000  0.000000 -0.000000 -0.004603
  2F   2px       -0.000293 -0.000000 -0.002864  0.012599 -0.003471  0.000000
  2F   2py        0.000536  0.000000  0.004960 -0.018019  0.012598 -0.000000
  2F   3pz       -0.000000 -0.000144  0.000000 -0.000000  0.000000 -0.000553
  2F   3px       -0.000948 -0.000000 -0.001246  0.002860 -0.000757  0.000000
  2F   3py        0.001100  0.000000  0.002159 -0.004059  0.002861 -0.000000
  2F   1dz2      -0.000056 -0.000000  0.000080 -0.000368  0.000212 -0.000000
  2F   1dxz      -0.000000 -0.000045  0.000000  0.000000  0.000000 -0.000075
  2F   1dyz       0.000000  0.000078 -0.000000  0.000000 -0.000000  0.000131
  2F   1dx2y2    -0.000080 -0.000000  0.000089 -0.000229  0.000329 -0.000000
  2F   1dxy      -0.000085 -0.000000  0.000155 -0.000596  0.000230 -0.000000
  2F   2dz2       0.000293  0.000000  0.001356 -0.003172  0.001831  0.000000
  2F   2dxz       0.000000  0.000159 -0.000000 -0.000000  0.000000 -0.001072
  2F   2dyz      -0.000000 -0.000275  0.000000  0.000000  0.000000  0.001856
  2F   2dx2y2     0.000365  0.000000  0.001097 -0.002083  0.002885  0.000000
  2F   2dxy       0.000439  0.000000  0.001900 -0.005289  0.002082 -0.000000
  2F   1f0       -0.000000 -0.000052  0.000000  0.000000  0.000000  0.000333
  2F   1f+1       0.000008  0.000000  0.000152 -0.000499  0.000176  0.000000
  2F   1f-1      -0.000048 -0.000000 -0.000264  0.000752 -0.000499 -0.000000
  2F   1f+2      -0.000000 -0.000033  0.000000  0.000000  0.000000  0.000218
  2F   1f-2      -0.000000 -0.000057  0.000000  0.000000  0.000000  0.000377
  2F   1f+3      -0.000061 -0.000000 -0.000382  0.001186 -0.000685 -0.000000
  2F   1f-3       0.000061 -0.000000 -0.000000  0.000220  0.000380  0.000000
  3F   1s         0.000002 -0.000000  0.001825  0.012964  0.007485  0.000000
  3F   2s        -0.000010  0.000000  0.004253  0.031067  0.017937  0.000000
  3F   3s         0.000086 -0.000000 -0.004624 -0.040770 -0.023539 -0.000000
  3F   4s         0.000525 -0.000000 -0.008151 -0.060402 -0.034872 -0.000000
  3F   5s        -0.002702  0.000000 -0.003975 -0.021008 -0.012131  0.000000
  3F   1pz       -0.000000 -0.000065  0.000000  0.000000  0.000000 -0.004623
  3F   1px        0.000068 -0.000000 -0.002467 -0.013415 -0.003557 -0.000000
  3F   1py        0.000134 -0.000000 -0.004273 -0.019047 -0.013415 -0.000000
  3F   2pz        0.000000  0.000209 -0.000000  0.000000  0.000000 -0.004603
  3F   2px       -0.000293  0.000000 -0.002864 -0.012599 -0.003471 -0.000000
  3F   2py       -0.000536  0.000000 -0.004960 -0.018019 -0.012598 -0.000000
  3F   3pz       -0.000000 -0.000144  0.000000  0.000000 -0.000000 -0.000553
  3F   3px       -0.000948  0.000000 -0.001246 -0.002860 -0.000757  0.000000
  3F   3py       -0.001100  0.000000 -0.002159 -0.004059 -0.002861  0.000000
  3F   1dz2      -0.000056  0.000000  0.000080  0.000368  0.000212  0.000000
  3F   1dxz      -0.000000 -0.000045 -0.000000 -0.000000 -0.000000 -0.000075
  3F   1dyz      -0.000000 -0.000078 -0.000000 -0.000000 -0.000000 -0.000131
  3F   1dx2y2    -0.000080  0.000000  0.000089  0.000229  0.000329  0.000000
  3F   1dxy       0.000085 -0.000000 -0.000155 -0.000596 -0.000230 -0.000000
  3F   2dz2       0.000293 -0.000000  0.001356  0.003172  0.001831 -0.000000
  3F   2dxz       0.000000  0.000159  0.000000  0.000000 -0.000000 -0.001072
  3F   2dyz       0.000000  0.000275  0.000000  0.000000  0.000000 -0.001856
  3F   2dx2y2     0.000365 -0.000000  0.001097  0.002083  0.002885  0.000000
  3F   2dxy      -0.000439  0.000000 -0.001900 -0.005289 -0.002082  0.000000
  3F   1f0       -0.000000 -0.000052 -0.000000  0.000000 -0.000000  0.000333
  3F   1f+1       0.000008 -0.000000  0.000152  0.000499  0.000176  0.000000
  3F   1f-1       0.000048 -0.000000  0.000264  0.000752  0.000499  0.000000
  3F   1f+2      -0.000000 -0.000033 -0.000000  0.000000 -0.000000  0.000218
  3F   1f-2       0.000000  0.000057  0.000000 -0.000000  0.000000 -0.000377
  3F   1f+3      -0.000061  0.000000 -0.000382 -0.001186 -0.000685  0.000000
  3F   1f-3      -0.000061  0.000000  0.000000  0.000220 -0.000380  0.000000
                     12        13        14        15        16        17   
                  -1.17190  -1.15199  -1.15199  -0.48107  -0.48107  -0.47892
                   1.00000   1.00000   1.00000   1.00000   1.00000   1.00000
                  --------  --------  --------  --------  --------  --------
  0Ti  1s         0.013798  0.000000 -0.000000  0.000007  0.000000  0.018468
  0Ti  2s        -0.045132 -0.000000  0.000000 -0.000020 -0.000000 -0.053937
  0Ti  3s         0.107549  0.000000 -0.000000  0.000063  0.000000  0.162287
  0Ti  4s         0.042067  0.000000 -0.000002  0.000023 -0.000000  0.072488
  0Ti  5s        -0.015718  0.000000  0.000002 -0.000021  0.000000 -0.096165
  0Ti  6s        -0.000776  0.000000 -0.000000  0.000013 -0.000000  0.041888
  0Ti  1pz       -0.000000  0.000000 -0.000000 -0.000000 -0.000000  0.000000
  0Ti  1px        0.000001  0.000000  0.097286  0.033407  0.000000 -0.000015
  0Ti  1py        0.000000 -0.097286  0.000000  0.000000 -0.033408 -0.000000
  0Ti  2pz        0.000000 -0.000000  0.000000  0.000000  0.000000 -0.000000
  0Ti  2px       -0.000003 -0.000000 -0.250379 -0.095165 -0.000000  0.000044
  0Ti  2py       -0.000000  0.250379 -0.000000 -0.000000  0.095169  0.000000
  0Ti  3pz       -0.000000 -0.000000  0.000000  0.000000  0.000000 -0.000000
  0Ti  3px        0.000000 -0.000000 -0.046259 -0.001804 -0.000000  0.000002
  0Ti  3py       -0.000000  0.046258 -0.000000 -0.000000  0.001806  0.000000
  0Ti  1dz2       0.027582  0.000000 -0.000000  0.000061  0.000000  0.165746
  0Ti  1dxz       0.000000  0.000000  0.000000  0.000000  0.000000 -0.000000
  0Ti  1dyz       0.000000 -0.000000  0.000000 -0.000000 -0.000000  0.000000
  0Ti  1dx2y2     0.000000  0.000000  0.032742  0.191725  0.000000 -0.000074
  0Ti  1dxy      -0.000000  0.032742 -0.000000 -0.000000  0.191732  0.000000
  0Ti  2dz2       0.027108 -0.000000  0.000000  0.000049  0.000000  0.127080
  0Ti  2dxz      -0.000000  0.000000 -0.000000  0.000000  0.000000 -0.000000
  0Ti  2dyz       0.000000  0.000000 -0.000000 -0.000000 -0.000000  0.000000
  0Ti  2dx2y2     0.000001  0.000000  0.032949  0.155947  0.000000 -0.000059
  0Ti  2dxy       0.000000  0.032949 -0.000000 -0.000000  0.155949  0.000000
  0Ti  3dz2       0.000896 -0.000000 -0.000001  0.000009 -0.000000  0.042168
  0Ti  3dxz      -0.000000 -0.000000  0.000000  0.000000  0.000000 -0.000000
  0Ti  3dyz       0.000000  0.000000  0.000000  0.000000 -0.000000 -0.000000
  0Ti  3dx2y2     0.000002  0.000000  0.008072  0.070309  0.000000 -0.000028
  0Ti  3dxy       0.000000  0.008071 -0.000000 -0.000000  0.070317 -0.000000
  0Ti  4pz        0.000000  0.000000 -0.000000 -0.000000 -0.000000  0.000000
  0Ti  4px        0.000003  0.000000  0.006951 -0.041689 -0.000000  0.000016
  0Ti  4py       -0.000000 -0.006949  0.000000 -0.000000  0.041688  0.000000
  0Ti  4dz2       0.002244 -0.000000  0.000000 -0.000003 -0.000000 -0.009174
  0Ti  4dxz      -0.000000 -0.000000  0.000000  0.000000  0.000000  0.000000
  0Ti  4dyz      -0.000000  0.000000 -0.000000  0.000000  0.000000  0.000000
  0Ti  4dx2y2    -0.000001  0.000000  0.001228 -0.001764 -0.000000  0.000001
  0Ti  4dxy       0.000000  0.001229 -0.000000  0.000000 -0.001762 -0.000000
  0Ti  1f0       -0.000000  0.000000 -0.000000  0.000000 -0.000000  0.000000
  0Ti  1f+1      -0.000000 -0.000000 -0.006012 -0.005929 -0.000000  0.000003
  0Ti  1f-1       0.000000  0.006012 -0.000000 -0.000000  0.005929 -0.000000
  0Ti  1f+2      -0.000000  0.000000 -0.000000 -0.000000 -0.000000 -0.000000
  0Ti  1f-2       0.000000 -0.000000  0.000000 -0.000000  0.000000 -0.000000
  0Ti  1f+3       0.011574  0.000000 -0.000000  0.000009 -0.000000  0.021338
  0Ti  1f-3       0.000000 -0.000001  0.000000 -0.000000 -0.000001 -0.000000
  1F   1s         0.061095 -0.000000 -0.085732  0.007996  0.000000 -0.008280
  1F   2s         0.148443 -0.000000 -0.208354  0.019927  0.000000 -0.020616
  1F   3s        -0.212174  0.000000  0.297896 -0.034132 -0.000000  0.034897
  1F   4s        -0.289816  0.000000  0.412324 -0.032583 -0.000000  0.037002
  1F   5s        -0.143025  0.000000  0.193474 -0.042663 -0.000000  0.039004
  1F   1pz        0.000000 -0.000000 -0.000000  0.000000 -0.000000 -0.000000
  1F   1px        0.019366 -0.000000 -0.017819 -0.293362 -0.000000  0.270137
  1F   1py        0.000000  0.003060 -0.000000 -0.000000  0.227954  0.000000
  1F   2pz        0.000000  0.000000  0.000000  0.000000 -0.000000 -0.000000
  1F   2px        0.022753 -0.000000 -0.024863 -0.237574 -0.000000  0.219784
  1F   2py        0.000000  0.002720 -0.000000 -0.000000  0.187120 -0.000000
  1F   3pz        0.000000  0.000000 -0.000000 -0.000000 -0.000000 -0.000000
  1F   3px        0.011708 -0.000000 -0.006997 -0.149090 -0.000000  0.141054
  1F   3py       -0.000000 -0.000171  0.000000 -0.000000  0.116055  0.000000
  1F   1dz2       0.000065 -0.000000 -0.000076 -0.000802 -0.000000  0.000662
  1F   1dxz       0.000000  0.000000  0.000000 -0.000000 -0.000000 -0.000000
  1F   1dyz       0.000000 -0.000000 -0.000000 -0.000000 -0.000000 -0.000000
  1F   1dx2y2    -0.000166  0.000000  0.000184  0.001520  0.000000 -0.001062
  1F   1dxy      -0.000000 -0.000160  0.000000  0.000000 -0.000921 -0.000000
  1F   2dz2       0.002296 -0.000000 -0.001765 -0.005073 -0.000000  0.005888
  1F   2dxz      -0.000000 -0.000000 -0.000000 -0.000000 -0.000000 -0.000000
  1F   2dyz      -0.000000  0.000000 -0.000000 -0.000000  0.000000  0.000000
  1F   2dx2y2    -0.003892  0.000000  0.003396  0.010025  0.000000 -0.008689
  1F   2dxy       0.000000 -0.000619  0.000000  0.000000 -0.012099  0.000000
  1F   1f0       -0.000000 -0.000000  0.000000  0.000000  0.000000  0.000000
  1F   1f+1      -0.000272  0.000000  0.000115  0.000682  0.000000 -0.000751
  1F   1f-1      -0.000000 -0.000037  0.000000  0.000000 -0.000337  0.000000
  1F   1f+2       0.000000  0.000000  0.000000  0.000000 -0.000000  0.000000
  1F   1f-2       0.000000 -0.000000 -0.000000  0.000000 -0.000000 -0.000000
  1F   1f+3      -0.000314  0.000000  0.000197  0.001158  0.000000 -0.000786
  1F   1f-3       0.000000 -0.000157  0.000000  0.000000 -0.001475  0.000000
  2F   1s         0.061096  0.074245  0.042865 -0.004003 -0.006927 -0.008276
  2F   2s         0.148445  0.180439  0.104175 -0.009976 -0.017264 -0.020604
  2F   3s        -0.212177 -0.257983 -0.148945  0.017087  0.029569  0.034878
  2F   4s        -0.289824 -0.357082 -0.206158  0.016315  0.028233  0.036980
  2F   5s        -0.143021 -0.167553 -0.096736  0.021344  0.036958  0.038981
  2F   1pz        0.000000  0.000000  0.000000 -0.000000 -0.000000  0.000000
  2F   1px       -0.009685 -0.006393 -0.006751 -0.244382 -0.028381 -0.134924
  2F   1py        0.016770  0.014127  0.006389  0.028455  0.277081  0.233814
  2F   2pz        0.000000  0.000000 -0.000000 -0.000000 -0.000000  0.000000
  2F   2px       -0.011376 -0.009588 -0.008255 -0.199796 -0.021893 -0.109774
  2F   2py        0.019705  0.019327  0.009588  0.021954  0.225020  0.190235
  2F   3pz        0.000000 -0.000000  0.000000 -0.000000 -0.000000  0.000000
  2F   3px       -0.005854 -0.003105 -0.001622 -0.124357 -0.014339 -0.070453
  2F   3py        0.010137  0.005204  0.003103  0.014376  0.140872  0.122089
  2F   1dz2       0.000063  0.000064  0.000037  0.000406  0.000689  0.000659
  2F   1dxz       0.000000  0.000000 -0.000000 -0.000000 -0.000000  0.000000
  2F   1dyz      -0.000000  0.000000  0.000000  0.000000 -0.000000  0.000000
  2F   1dx2y2     0.000081  0.000146 -0.000075 -0.000309  0.001052  0.000527
  2F   1dxy       0.000146  0.000101  0.000151  0.001061  0.000911  0.000920
  2F   2dz2       0.002297  0.001530  0.000883  0.002537  0.004399  0.005886
  2F   2dxz      -0.000000 -0.000000  0.000000 -0.000000  0.000000  0.000000
  2F   2dyz       0.000000 -0.000000 -0.000000 -0.000000 -0.000000 -0.000000
  2F   2dx2y2     0.001948  0.001741  0.000386 -0.006568  0.009584  0.004345
  2F   2dxy       0.003369  0.002390  0.001737  0.009583  0.004497  0.007517
  2F   1f0       -0.000000 -0.000000 -0.000000 -0.000000 -0.000000 -0.000000
  2F   1f+1       0.000135  0.000032  0.000056  0.000427  0.000150  0.000377
  2F   1f-1      -0.000236 -0.000096 -0.000034 -0.000149 -0.000593 -0.000647
  2F   1f+2      -0.000000 -0.000000 -0.000000  0.000000 -0.000000 -0.000000
  2F   1f-2       0.000000  0.000000 -0.000000 -0.000000  0.000000 -0.000000
  2F   1f+3      -0.000314 -0.000171 -0.000098 -0.000580 -0.001002 -0.000786
  2F   1f-3       0.000000  0.000079 -0.000136 -0.001277  0.000735 -0.000001
  3F   1s         0.061096 -0.074245  0.042865 -0.004003  0.006927 -0.008276
  3F   2s         0.148445 -0.180438  0.104175 -0.009976  0.017264 -0.020604
  3F   3s        -0.212177  0.257983 -0.148945  0.017087 -0.029569  0.034878
  3F   4s        -0.289824  0.357081 -0.206159  0.016315 -0.028233  0.036980
  3F   5s        -0.143021  0.167553 -0.096736  0.021344 -0.036958  0.038981
  3F   1pz        0.000000 -0.000000  0.000000  0.000000 -0.000000  0.000000
  3F   1px       -0.009685  0.006393 -0.006751 -0.244382  0.028381 -0.134924
  3F   1py       -0.016770  0.014127 -0.006390 -0.028456  0.277081 -0.233814
  3F   2pz        0.000000 -0.000000  0.000000  0.000000 -0.000000  0.000000
  3F   2px       -0.011376  0.009587 -0.008255 -0.199796  0.021892 -0.109774
  3F   2py       -0.019705  0.019327 -0.009588 -0.021954  0.225020 -0.190235
  3F   3pz        0.000000 -0.000000  0.000000  0.000000 -0.000000  0.000000
  3F   3px       -0.005854  0.003105 -0.001622 -0.124357  0.014339 -0.070453
  3F   3py       -0.010137  0.005204 -0.003103 -0.014376  0.140872 -0.122089
  3F   1dz2       0.000063 -0.000064  0.000037  0.000406 -0.000689  0.000659
  3F   1dxz      -0.000000 -0.000000  0.000000 -0.000000  0.000000 -0.000000
  3F   1dyz      -0.000000 -0.000000  0.000000 -0.000000  0.000000  0.000000
  3F   1dx2y2     0.000081 -0.000146 -0.000075 -0.000309 -0.001052  0.000527
  3F   1dxy      -0.000146  0.000101 -0.000151 -0.001061  0.000911 -0.000920
  3F   2dz2       0.002297 -0.001530  0.000883  0.002537 -0.004399  0.005886
  3F   2dxz       0.000000  0.000000 -0.000000  0.000000 -0.000000  0.000000
  3F   2dyz       0.000000  0.000000 -0.000000  0.000000 -0.000000  0.000000
  3F   2dx2y2     0.001948 -0.001741  0.000386 -0.006568 -0.009584  0.004345
  3F   2dxy      -0.003369  0.002390 -0.001737 -0.009583  0.004497 -0.007517
  3F   1f0        0.000000  0.000000  0.000000  0.000000  0.000000  0.000000
  3F   1f+1       0.000135 -0.000032  0.000056  0.000427 -0.000150  0.000377
  3F   1f-1       0.000236 -0.000096  0.000034  0.000149 -0.000593  0.000647
  3F   1f+2      -0.000000  0.000000  0.000000  0.000000 -0.000000 -0.000000
  3F   1f-2      -0.000000  0.000000 -0.000000  0.000000  0.000000 -0.000000
  3F   1f+3      -0.000314  0.000171 -0.000098 -0.000580  0.001002 -0.000786
  3F   1f-3      -0.000000  0.000079  0.000136  0.001277  0.000735  0.000001
                     18        19        20        21        22        23   
                  -0.45185  -0.45184  -0.43912  -0.43696  -0.43695  -0.42929
                   1.00000   1.00000   1.00000   1.00000   1.00000   1.00000
                  --------  --------  --------  --------  --------  --------
  0Ti  1s         0.000000 -0.000000  0.000000 -0.000000  0.000001  0.000000
  0Ti  2s         0.000000  0.000000 -0.000000  0.000000 -0.000003 -0.000000
  0Ti  3s         0.000000 -0.000000  0.000000 -0.000000  0.000008  0.000000
  0Ti  4s        -0.000000 -0.000000  0.000000 -0.000000  0.000007  0.000000
  0Ti  5s         0.000000  0.000000 -0.000000  0.000000 -0.000016 -0.000000
  0Ti  6s        -0.000000 -0.000000  0.000000 -0.000000  0.000004  0.000000
  0Ti  1pz       -0.000000  0.000005 -0.043172  0.000000 -0.000000 -0.000000
  0Ti  1px        0.000000  0.000000 -0.000000  0.000000  0.069871 -0.000000
  0Ti  1py        0.000000 -0.000000 -0.000000 -0.069870  0.000000 -0.000022
  0Ti  2pz        0.000000 -0.000014  0.124660 -0.000000  0.000000  0.000000
  0Ti  2px       -0.000000 -0.000000  0.000000 -0.000000 -0.200560  0.000000
  0Ti  2py       -0.000000  0.000000  0.000000  0.200558 -0.000000  0.000064
  0Ti  3pz        0.000000 -0.000001  0.005551 -0.000000  0.000000  0.000000
  0Ti  3px        0.000000  0.000000 -0.000000 -0.000000 -0.008684  0.000000
  0Ti  3py       -0.000000  0.000000  0.000000  0.008679 -0.000000  0.000006
  0Ti  1dz2       0.000000 -0.000000 -0.000000  0.000000  0.000011 -0.000000
  0Ti  1dxz       0.000000 -0.121043 -0.000015  0.000000  0.000000  0.000000
  0Ti  1dyz      -0.121043 -0.000000 -0.000000 -0.000000  0.000000 -0.000000
  0Ti  1dx2y2    -0.000000  0.000000 -0.000000  0.000000  0.029046  0.000000
  0Ti  1dxy      -0.000000  0.000000 -0.000000  0.029041 -0.000000  0.000017
  0Ti  2dz2       0.000000 -0.000000  0.000000 -0.000000  0.000007 -0.000000
  0Ti  2dxz       0.000000 -0.101040 -0.000012  0.000000  0.000000  0.000000
  0Ti  2dyz      -0.101040 -0.000000  0.000000 -0.000000  0.000000 -0.000000
  0Ti  2dx2y2    -0.000000  0.000000 -0.000000  0.000000  0.021424  0.000000
  0Ti  2dxy      -0.000000  0.000000 -0.000000  0.021423 -0.000000  0.000012
  0Ti  3dz2       0.000000  0.000000 -0.000000 -0.000000  0.000006  0.000000
  0Ti  3dxz       0.000000 -0.067416 -0.000006  0.000000 -0.000000 -0.000000
  0Ti  3dyz      -0.067416 -0.000000  0.000000 -0.000000  0.000000 -0.000000
  0Ti  3dx2y2    -0.000000  0.000000  0.000000 -0.000000 -0.028631  0.000000
  0Ti  3dxy       0.000000 -0.000000 -0.000000 -0.028636  0.000000 -0.000011
  0Ti  4pz       -0.000000  0.000010 -0.091745  0.000000 -0.000000 -0.000000
  0Ti  4px        0.000000  0.000000 -0.000000  0.000000  0.033489  0.000000
  0Ti  4py        0.000000  0.000000  0.000000 -0.033485  0.000000 -0.000017
  0Ti  4dz2       0.000000 -0.000000 -0.000000  0.000000 -0.000001 -0.000000
  0Ti  4dxz       0.000000 -0.014447 -0.000002  0.000000  0.000000 -0.000000
  0Ti  4dyz      -0.014447 -0.000000 -0.000000  0.000000  0.000000 -0.000000
  0Ti  4dx2y2    -0.000000 -0.000000  0.000000 -0.000000 -0.026043  0.000000
  0Ti  4dxy      -0.000000 -0.000000 -0.000000 -0.026044  0.000000 -0.000009
  0Ti  1f0        0.000000 -0.000002  0.018606 -0.000000  0.000000  0.000000
  0Ti  1f+1      -0.000000 -0.000000  0.000000 -0.000000 -0.011308 -0.000000
  0Ti  1f-1      -0.000000 -0.000000 -0.000000  0.011309 -0.000000  0.000003
  0Ti  1f+2       0.000000 -0.017946 -0.000002  0.000000  0.000000 -0.000000
  0Ti  1f-2       0.017947  0.000000  0.000000  0.000000 -0.000000 -0.000000
  0Ti  1f+3       0.000000  0.000000 -0.000000 -0.000000  0.000000  0.000000
  0Ti  1f-3      -0.000000 -0.000000  0.000000 -0.000009  0.000000  0.031381
  1F   1s        -0.000000  0.000000 -0.000000  0.000000  0.004175  0.000000
  1F   2s        -0.000000  0.000000 -0.000000  0.000000  0.010474 -0.000000
  1F   3s        -0.000000 -0.000000  0.000000 -0.000000 -0.018998  0.000000
  1F   4s         0.000000  0.000000 -0.000000 -0.000000 -0.016990 -0.000000
  1F   5s        -0.000000 -0.000000  0.000000  0.000000  0.000382 -0.000000
  1F   1pz        0.000000 -0.386261 -0.282313  0.000000 -0.000000 -0.000000
  1F   1px        0.000000 -0.000000  0.000000 -0.000000 -0.255741  0.000000
  1F   1py        0.000000 -0.000000 -0.000000 -0.312381  0.000000 -0.292459
  1F   2pz        0.000000 -0.314191 -0.229404  0.000000 -0.000000 -0.000000
  1F   2px       -0.000000 -0.000000  0.000000 -0.000000 -0.211477  0.000000
  1F   2py        0.000000 -0.000000 -0.000000 -0.255548  0.000000 -0.235616
  1F   3pz        0.000000 -0.214893 -0.161701  0.000000 -0.000000 -0.000000
  1F   3px        0.000000 -0.000000  0.000000 -0.000000 -0.141821  0.000000
  1F   3py        0.000000 -0.000000 -0.000000 -0.170576  0.000000 -0.175196
  1F   1dz2       0.000000  0.000000  0.000000 -0.000000 -0.000484 -0.000000
  1F   1dxz      -0.000000  0.001024  0.000450 -0.000000  0.000000  0.000000
  1F   1dyz      -0.000153 -0.000000 -0.000000  0.000000 -0.000000 -0.000000
  1F   1dx2y2    -0.000000  0.000000 -0.000000  0.000000  0.000663 -0.000000
  1F   1dxy       0.000000 -0.000000  0.000000  0.000458 -0.000000  0.000556
  1F   2dz2      -0.000000  0.000000 -0.000000 -0.000000 -0.003758  0.000000
  1F   2dxz      -0.000000  0.017026  0.011443 -0.000000 -0.000000  0.000000
  1F   2dyz      -0.000447 -0.000000  0.000000 -0.000000  0.000000  0.000000
  1F   2dx2y2     0.000000 -0.000000  0.000000  0.000000  0.006757  0.000000
  1F   2dxy      -0.000000  0.000000 -0.000000  0.011852 -0.000000  0.010521
  1F   1f0       -0.000000  0.001097  0.000688 -0.000000  0.000000  0.000000
  1F   1f+1       0.000000  0.000000 -0.000000  0.000000  0.000393 -0.000000
  1F   1f-1       0.000000  0.000000 -0.000000  0.000283 -0.000000  0.000191
  1F   1f+2       0.000000 -0.001537 -0.000934  0.000000 -0.000000 -0.000000
  1F   1f-2       0.000144  0.000000 -0.000000 -0.000000 -0.000000  0.000000
  1F   1f+3       0.000000  0.000000 -0.000000  0.000000  0.000569 -0.000000
  1F   1f-3       0.000000  0.000000  0.000000  0.001258 -0.000000  0.001017
  2F   1s         0.000000 -0.000000  0.000000 -0.003617 -0.002088 -0.000001
  2F   2s         0.000000 -0.000000  0.000000 -0.009072 -0.005238 -0.000002
  2F   3s        -0.000000  0.000000  0.000000  0.016457  0.009500  0.000003
  2F   4s         0.000000  0.000000 -0.000000  0.014712  0.008495  0.000002
  2F   5s        -0.000000 -0.000000 -0.000000 -0.000328 -0.000181  0.000004
  2F   1pz       -0.334542  0.193181 -0.282247 -0.000000 -0.000000 -0.000000
  2F   1px        0.000000 -0.000000 -0.000000 -0.246121  0.170403  0.253127
  2F   1py        0.000000  0.000000 -0.000000  0.113648  0.246054  0.146228
  2F   2pz       -0.272120  0.157135 -0.229349 -0.000000 -0.000000 -0.000000
  2F   2px        0.000000 -0.000000 -0.000000 -0.202323  0.138835  0.203926
  2F   2py        0.000000  0.000000 -0.000000  0.094670  0.202272  0.117810
  2F   3pz       -0.186119  0.107474 -0.161661 -0.000000 -0.000000 -0.000000
  2F   3px        0.000000 -0.000000 -0.000000 -0.135338  0.092509  0.151646
  2F   3py        0.000000  0.000000 -0.000000  0.063684  0.135300  0.087600
  2F   1dz2       0.000000  0.000000 -0.000000  0.000421  0.000233 -0.000008
  2F   1dxz      -0.000496  0.000134 -0.000214  0.000000 -0.000000  0.000000
  2F   1dyz       0.000741 -0.000516  0.000399  0.000000 -0.000000  0.000000
  2F   1dx2y2     0.000000  0.000000 -0.000000  0.000088  0.000504  0.000477
  2F   1dxy      -0.000000 -0.000000 -0.000000  0.000616  0.000087 -0.000281
  2F   2dz2      -0.000000  0.000000  0.000000  0.003252  0.001885  0.000007
  2F   2dxz      -0.007576  0.003928 -0.005728 -0.000000 -0.000000 -0.000000
  2F   2dyz       0.012651 -0.007564  0.009901  0.000000  0.000000  0.000000
  2F   2dx2y2    -0.000000 -0.000000 -0.000000 -0.002211  0.010584  0.009112
  2F   2dxy      -0.000000  0.000000  0.000000  0.008031 -0.002205 -0.005254
  2F   1f0        0.000952 -0.000549  0.000689 -0.000000 -0.000000  0.000000
  2F   1f+1      -0.000000  0.000000 -0.000000  0.000296 -0.000116 -0.000169
  2F   1f-1      -0.000000  0.000000 -0.000000 -0.000223 -0.000290 -0.000094
  2F   1f+2       0.000610 -0.000496  0.000472 -0.000000 -0.000000 -0.000000
  2F   1f-2       0.001188 -0.000603  0.000808  0.000000  0.000000  0.000000
  2F   1f+3       0.000000  0.000000 -0.000000 -0.000494 -0.000283  0.000002
  2F   1f-3      -0.000000 -0.000000 -0.000000 -0.000630  0.001088  0.001015
  3F   1s        -0.000000  0.000000  0.000000  0.003617 -0.002088  0.000001
  3F   2s        -0.000000  0.000000  0.000000  0.009072 -0.005238  0.000002
  3F   3s         0.000000 -0.000000  0.000000 -0.016457  0.009500 -0.000003
  3F   4s         0.000000 -0.000000 -0.000000 -0.014712  0.008495 -0.000002
  3F   5s        -0.000000 -0.000000  0.000000  0.000328 -0.000181 -0.000004
  3F   1pz        0.334542  0.193181 -0.282247  0.000000 -0.000000 -0.000000
  3F   1px        0.000000  0.000000  0.000000  0.246121  0.170403 -0.253127
  3F   1py       -0.000000  0.000000  0.000000  0.113648 -0.246054  0.146228
  3F   2pz        0.272120  0.157135 -0.229349  0.000000 -0.000000 -0.000000
  3F   2px        0.000000  0.000000  0.000000  0.202323  0.138835 -0.203926
  3F   2py       -0.000000  0.000000  0.000000  0.094670 -0.202272  0.117810
  3F   3pz        0.186118  0.107475 -0.161661  0.000000 -0.000000 -0.000000
  3F   3px        0.000000  0.000000  0.000000  0.135338  0.092509 -0.151646
  3F   3py       -0.000000  0.000000  0.000000  0.063683 -0.135300  0.087600
  3F   1dz2       0.000000  0.000000  0.000000 -0.000421  0.000233  0.000008
  3F   1dxz       0.000496  0.000134 -0.000214  0.000000 -0.000000 -0.000000
  3F   1dyz       0.000741  0.000516 -0.000399  0.000000 -0.000000 -0.000000
  3F   1dx2y2     0.000000 -0.000000 -0.000000 -0.000088  0.000504 -0.000477
  3F   1dxy       0.000000 -0.000000 -0.000000  0.000616 -0.000087 -0.000281
  3F   2dz2      -0.000000 -0.000000 -0.000000 -0.003252  0.001885 -0.000007
  3F   2dxz       0.007576  0.003928 -0.005728 -0.000000 -0.000000  0.000000
  3F   2dyz       0.012651  0.007564 -0.009901 -0.000000 -0.000000 -0.000000
  3F   2dx2y2    -0.000000  0.000000  0.000000  0.002211  0.010584 -0.009112
  3F   2dxy       0.000000  0.000000  0.000000  0.008031  0.002205 -0.005254
  3F   1f0       -0.000952 -0.000549  0.000689 -0.000000 -0.000000 -0.000000
  3F   1f+1      -0.000000  0.000000  0.000000 -0.000296 -0.000116  0.000169
  3F   1f-1      -0.000000 -0.000000  0.000000 -0.000223  0.000290 -0.000094
  3F   1f+2      -0.000610 -0.000496  0.000472  0.000000 -0.000000  0.000000
  3F   1f-2       0.001188  0.000603 -0.000808  0.000000 -0.000000  0.000000
  3F   1f+3       0.000000  0.000000  0.000000  0.000494 -0.000283 -0.000002
  3F   1f-3      -0.000000 -0.000000  0.000000 -0.000630 -0.001088  0.001015
                     24        25        26        27        28        29   
                  -0.25265  -0.10424  -0.10423  -0.05222  -0.05222  -0.02026
                   1.00000   0.00000   0.00000   0.00000   0.00000   0.00000
                  --------  --------  --------  --------  --------  --------
  0Ti  1s        -0.019912 -0.000000 -0.000000 -0.000000 -0.000000 -0.008176
  0Ti  2s         0.059404  0.000000  0.000000  0.000000  0.000002  0.029673
  0Ti  3s        -0.175897 -0.000000 -0.000000 -0.000000 -0.000001 -0.062684
  0Ti  4s        -0.140949  0.000000  0.000000 -0.000000 -0.000013 -0.110140
  0Ti  5s         0.397359 -0.000000 -0.000000  0.000000  0.000031 -0.197107
  0Ti  6s         0.039794  0.000000  0.000000  0.000000  0.000031  1.271806
  0Ti  1pz        0.000000  0.000000  0.000001  0.000000  0.000000  0.000000
  0Ti  1px        0.000000  0.000000 -0.000000 -0.000000 -0.051998  0.000002
  0Ti  1py        0.000000 -0.000000  0.000000 -0.051998  0.000000 -0.000000
  0Ti  2pz       -0.000000 -0.000000 -0.000004 -0.000000 -0.000000 -0.000000
  0Ti  2px       -0.000002 -0.000000  0.000000  0.000001  0.154158 -0.000006
  0Ti  2py       -0.000000  0.000000 -0.000000  0.154156 -0.000001  0.000000
  0Ti  3pz       -0.000000 -0.000000  0.000002 -0.000000 -0.000000 -0.000000
  0Ti  3px        0.000002  0.000000  0.000000  0.000000  0.027746 -0.000002
  0Ti  3py       -0.000000  0.000000  0.000000  0.027739 -0.000000 -0.000000
  0Ti  1dz2       0.508309  0.000000  0.000000 -0.000000 -0.000008 -0.246301
  0Ti  1dxz      -0.000000 -0.000001  0.570276  0.000000 -0.000000 -0.000000
  0Ti  1dyz      -0.000000  0.570275  0.000001 -0.000000 -0.000000  0.000000
  0Ti  1dx2y2    -0.000000  0.000000  0.000000  0.000004  0.573286 -0.000023
  0Ti  1dxy       0.000000 -0.000000  0.000000 -0.573287  0.000004  0.000000
  0Ti  2dz2       0.348601  0.000000  0.000000  0.000000 -0.000002 -0.149128
  0Ti  2dxz      -0.000000 -0.000001  0.391734  0.000000 -0.000000 -0.000000
  0Ti  2dyz      -0.000000  0.391730  0.000001 -0.000000 -0.000000  0.000000
  0Ti  2dx2y2     0.000001 -0.000000  0.000000  0.000003  0.380327 -0.000020
  0Ti  2dxy       0.000000 -0.000000  0.000000 -0.380327  0.000003 -0.000000
  0Ti  3dz2       0.252122  0.000000  0.000000 -0.000000 -0.000016 -0.067492
  0Ti  3dxz      -0.000000 -0.000001  0.309419  0.000000 -0.000000 -0.000000
  0Ti  3dyz      -0.000000  0.309428  0.000001  0.000000  0.000000  0.000000
  0Ti  3dx2y2    -0.000005  0.000000  0.000000  0.000002  0.286632  0.000016
  0Ti  3dxy      -0.000000 -0.000000 -0.000000 -0.286639  0.000002  0.000000
  0Ti  4pz        0.000000  0.000000  0.000008  0.000000  0.000000  0.000000
  0Ti  4px        0.000002  0.000000 -0.000000 -0.000001 -0.202292  0.000035
  0Ti  4py        0.000000 -0.000000  0.000000 -0.202257  0.000001 -0.000000
  0Ti  4dz2       0.035576 -0.000000  0.000000  0.000000  0.000001  0.034272
  0Ti  4dxz      -0.000000 -0.000000  0.023615 -0.000000  0.000000  0.000000
  0Ti  4dyz      -0.000000  0.023614  0.000000 -0.000000  0.000000 -0.000000
  0Ti  4dx2y2     0.000000  0.000000  0.000000  0.000000  0.026501 -0.000001
  0Ti  4dxy      -0.000000  0.000000  0.000000 -0.026501  0.000000  0.000000
  0Ti  1f0       -0.000000  0.000000 -0.000000 -0.000000 -0.000000  0.000000
  0Ti  1f+1       0.000001  0.000000 -0.000000  0.000000  0.005241 -0.000000
  0Ti  1f-1      -0.000000 -0.000000  0.000000  0.005238 -0.000000 -0.000000
  0Ti  1f+2      -0.000000  0.000000 -0.005998 -0.000000 -0.000000 -0.000000
  0Ti  1f-2       0.000000  0.006000  0.000000  0.000000  0.000000  0.000000
  0Ti  1f+3      -0.002450  0.000000  0.000000  0.000000  0.000001  0.026430
  0Ti  1f-3       0.000000 -0.000000 -0.000000  0.000000  0.000000 -0.000000
  1F   1s         0.001119 -0.000000  0.000000  0.000000  0.006745  0.014639
  1F   2s         0.002757 -0.000000  0.000000  0.000000  0.016939  0.036553
  1F   3s        -0.004221  0.000000 -0.000000 -0.000000 -0.028584 -0.059283
  1F   4s        -0.014188 -0.000000 -0.000000 -0.000000 -0.029020 -0.097124
  1F   5s         0.023943  0.000000 -0.000000 -0.000001 -0.107731 -0.148441
  1F   1pz        0.000000  0.000000 -0.156648 -0.000000  0.000000 -0.000000
  1F   1px       -0.062663 -0.000000  0.000000  0.000001  0.140651  0.050317
  1F   1py       -0.000000  0.000000 -0.000000  0.156532 -0.000001  0.000000
  1F   2pz        0.000000  0.000000 -0.120494 -0.000000  0.000000 -0.000000
  1F   2px       -0.050327 -0.000000  0.000000  0.000001  0.112159  0.051205
  1F   2py       -0.000000  0.000000 -0.000000  0.120543 -0.000001  0.000000
  1F   3pz        0.000000  0.000000 -0.156369 -0.000000 -0.000000 -0.000000
  1F   3px       -0.063512 -0.000000 -0.000000  0.000001  0.152300  0.017248
  1F   3py        0.000000  0.000000 -0.000000  0.158252 -0.000001 -0.000000
  1F   1dz2       0.000866  0.000000 -0.000000 -0.000000 -0.000812  0.000147
  1F   1dxz      -0.000000  0.000000 -0.002019 -0.000000 -0.000000 -0.000000
  1F   1dyz      -0.000000  0.000427  0.000000  0.000000  0.000000 -0.000000
  1F   1dx2y2    -0.000695 -0.000000  0.000000  0.000000  0.001805 -0.000233
  1F   1dxy       0.000000 -0.000000  0.000000  0.002022 -0.000000 -0.000000
  1F   2dz2       0.003393 -0.000000 -0.000000 -0.000000 -0.002261 -0.001614
  1F   2dxz       0.000000  0.000000 -0.008632  0.000000  0.000000  0.000000
  1F   2dyz      -0.000000  0.005276  0.000000 -0.000000 -0.000000  0.000000
  1F   2dx2y2    -0.000090  0.000000  0.000000  0.000000  0.008553 -0.001509
  1F   2dxy      -0.000000  0.000000 -0.000000  0.011561 -0.000000  0.000000
  1F   1f0       -0.000000  0.000000 -0.000739 -0.000000  0.000000  0.000000
  1F   1f+1      -0.000774  0.000000 -0.000000  0.000000  0.000444  0.000235
  1F   1f-1      -0.000000 -0.000000  0.000000  0.000336 -0.000000  0.000000
  1F   1f+2       0.000000 -0.000000  0.000908  0.000000 -0.000000 -0.000000
  1F   1f-2       0.000000 -0.000845 -0.000000  0.000000  0.000000 -0.000000
  1F   1f+3      -0.000070  0.000000  0.000000  0.000000  0.001164 -0.000222
  1F   1f-3      -0.000000 -0.000000  0.000000  0.001192 -0.000000  0.000000
  2F   1s         0.001119 -0.000000  0.000000  0.005841 -0.003371  0.014639
  2F   2s         0.002757 -0.000000  0.000000  0.014669 -0.008467  0.036553
  2F   3s        -0.004221  0.000000 -0.000000 -0.024752  0.014287 -0.059282
  2F   4s        -0.014189 -0.000000 -0.000000 -0.025143  0.014505 -0.097132
  2F   5s         0.023944  0.000000  0.000000 -0.093287  0.053845 -0.148405
  2F   1pz       -0.000000 -0.135661  0.078323  0.000000 -0.000000 -0.000000
  2F   1px        0.031330  0.000000  0.000000  0.006876  0.152559 -0.025166
  2F   1py       -0.054268  0.000000 -0.000000  0.144622  0.006879  0.043581
  2F   2pz        0.000000 -0.104351  0.060248  0.000000 -0.000000 -0.000000
  2F   2px        0.025163  0.000000  0.000000  0.003626  0.118441 -0.025605
  2F   2py       -0.043585  0.000000 -0.000000  0.114259  0.003632  0.044350
  2F   3pz       -0.000000 -0.135419  0.078178  0.000000 -0.000000 -0.000000
  2F   3px        0.031753  0.000000  0.000000  0.002586  0.156767 -0.008628
  2F   3py       -0.055005 -0.000000 -0.000000  0.153786  0.002585  0.014933
  2F   1dz2       0.000866  0.000000 -0.000000 -0.000706  0.000403  0.000146
  2F   1dxz      -0.000000  0.001064 -0.000187  0.000000  0.000000  0.000000
  2F   1dyz      -0.000000 -0.001404  0.001057  0.000000  0.000000 -0.000000
  2F   1dx2y2     0.000348  0.000000 -0.000000 -0.001660 -0.001066  0.000115
  2F   1dxy       0.000601  0.000000  0.000000 -0.000848  0.001655  0.000203
  2F   2dz2       0.003392 -0.000000  0.000000 -0.001956  0.001133 -0.001614
  2F   2dxz       0.000000  0.006019  0.001802 -0.000000 -0.000000  0.000000
  2F   2dyz       0.000000 -0.005157  0.006024 -0.000000  0.000000  0.000000
  2F   2dx2y2     0.000044 -0.000000 -0.000000 -0.008708 -0.006532  0.000756
  2F   2dxy       0.000078 -0.000000 -0.000000 -0.003524  0.008711  0.001305
  2F   1f0       -0.000000 -0.000639  0.000369  0.000000  0.000000  0.000000
  2F   1f+1       0.000386  0.000000 -0.000000 -0.000047  0.000361 -0.000118
  2F   1f-1      -0.000671  0.000000 -0.000000  0.000418 -0.000047  0.000204
  2F   1f+2       0.000000 -0.000025  0.000860  0.000000  0.000000  0.000000
  2F   1f-2      -0.000000 -0.000893  0.000028  0.000000 -0.000000 -0.000000
  2F   1f+3      -0.000070  0.000000 -0.000000  0.001009 -0.000581 -0.000222
  2F   1f-3       0.000000  0.000000  0.000000 -0.000597 -0.001033 -0.000000
  3F   1s         0.001119 -0.000000  0.000000 -0.005841 -0.003371  0.014639
  3F   2s         0.002757 -0.000000  0.000000 -0.014670 -0.008466  0.036553
[...]
 2 F  f-1             0.3       0.4       0.1       0.0       0.0       0.0
 2 F  f+3             0.7       0.8       0.3       0.0       0.0       0.0
 3 F  s               0.2       0.3       0.1      50.0      16.7      33.3
 3 F  py              0.1       0.2       0.1       0.0       0.0       0.0
 3 F  dz2             7.8      11.8       3.9       0.0       0.0       0.0
 3 F  dx2y2           5.7       9.9       1.9       0.0       0.0       0.0
 3 F  dxy            17.2      24.9       9.9       0.0       0.0       0.0
 3 F  f+1             0.1       0.1       0.1       0.0       0.0       0.0
 3 F  f-1             0.3       0.4       0.1       0.0       0.0       0.0
 3 F  f+3             0.7       0.8       0.3       0.0       0.0       0.0



                      *****************************
                      * MAYER POPULATION ANALYSIS *
                      *****************************

  NA   - Mulliken gross atomic population
  ZA   - Total nuclear charge
  QA   - Mulliken gross atomic charge
  VA   - Mayer's total valence
  BVA  - Mayer's bonded valence
  FA   - Mayer's free valence

  ATOM       NA         ZA         QA         VA         BVA        FA
  0 Ti    20.5784    22.0000     1.4216     3.7136     2.7868     0.9268
  1 F      9.4738     9.0000    -0.4738     0.9645     0.9643     0.0001
  2 F      9.4739     9.0000    -0.4739     0.9644     0.9643     0.0001
  3 F      9.4739     9.0000    -0.4739     0.9644     0.9643     0.0001

  Mayer bond orders larger than 0.100000
B(  0-Ti,  1-F ) :   0.9290 B(  0-Ti,  2-F ) :   0.9289 B(  0-Ti,  3-F ) :   0.9289 


-------
TIMINGS
-------

Total SCF time: 0 days 0 hours 0 min 5 sec 

Total time                  ....       5.222 sec
Sum of individual times     ....       5.186 sec  ( 99.3%)

SCF preparation             ....       0.067 sec  (  1.3%)
Fock matrix formation       ....       4.976 sec  ( 95.3%)
  Startup                   ....       0.014 sec  (  0.3% of F)
  Coulomb+Exchange Fock     ....       3.960 sec  ( 79.6% of F)
  XC integration            ....       0.979 sec  ( 19.7% of F)
    XC Preparation          ....       0.000 sec  (  0.0% of XC)
    Basis function eval.    ....       0.253 sec  ( 25.9% of XC)
    Density eval.           ....       0.237 sec  ( 24.2% of XC)
    XC-Functional eval.     ....       0.070 sec  (  7.1% of XC)
    XC-Potential eval.      ....       0.381 sec  ( 38.9% of XC)
Diagonalization             ....       0.000 sec  (  0.0%)
Density matrix formation    ....       0.016 sec  (  0.3%)
Total Energy calculation    ....       0.006 sec  (  0.1%)
Population analysis         ....       0.064 sec  (  1.2%)
Orbital Transformation      ....       0.015 sec  (  0.3%)
Orbital Orthonormalization  ....       0.000 sec  (  0.0%)
DIIS solution               ....       0.016 sec  (  0.3%)
  MO trafo                  ....       0.000 sec  (  0.0 % of DIIS)
  Orb grad                  ....       0.000 sec  (  0.0 % of DIIS)
  Energy W gradient         ....       0.000 sec  (  0.0 % of DIIS)
  DIIS error                ....       0.001 sec  (  8.5 % of DIIS)
  DIIS work                 ....       0.012 sec  ( 75.1 % of DIIS)
  Form Q                    ....       0.000 sec  (  0.0 % of DIIS)
  Form QpQm                 ....       0.000 sec  (  0.0 % of DIIS)
  Exp/Cayley                ....       0.000 sec  (  0.0 % of DIIS)
  Orb update                ....       0.000 sec  (  0.0 % of DIIS)
  Wake-sleep                ....       0.003 sec  ( 16.3 % of DIIS)
SOSCF solution              ....       0.027 sec  (  0.5%)
  MO trafo                  ....       0.019 sec  ( 68.9 % of SOSCF)
  Orb grad                  ....       0.001 sec  (  3.7 % of SOSCF)
  Rot update                ....       0.000 sec  (  0.4 % of SOSCF)
  Step                      ....       0.006 sec  ( 22.8 % of SOSCF)
Finished LeanSCF after   5.3 sec

Maximum memory used throughout the entire LEANSCF-calculation: 20.2 MB

------------------------------------------------------------------------------
                         ORCA PROPERTY INTEGRAL CALCULATIONS
------------------------------------------------------------------------------

GBWName                                   ... tif3_cpks.gbw
Number of atoms                           ...      4
Number of basis functions                 ...    138
Max core memory                           ...   1024 MB

Dipole integrals                          ... YES
Quadrupole integrals                      ...  NO
Linear momentum integrals                 ...  NO
Angular momentum integrals                ... YES
Higher moments length integrals           ...  NO
Higher moments velocity integrals         ...  NO
Kinetic energy integrals                  ... YES
GIAO right hand sides                     ...  NO
GIAO dipole derivative integrals          ...  NO
SOC integrals                             ... YES
EPR diamagnetic integrals (GIAO)          ...  NO
EPR gauge integrals                       ... YES
Field gradient integrals                  ...  NO (   0 nuclei)
Spin-dipole/Fermi contact integrals       ...  NO (   0 nuclei)
Contact density integrals                 ...  NO (   0 nuclei)
Nucleus-orbit integrals                   ...  NO (   0 nuclei)
Geometric perturbations                   ...  NO (   4 nuclei)

Choice of electric origin   ... Center of mass
Position of electric origin ... (  0.0000,  0.0000,  0.0000) 
Choice of magnetic origin   ... Center of nuclear charge
Position of magnetic origin ... (  0.0000,  0.0000,  0.0000) 

Calculating integrals                     ... Electric Dipole (Length)     done (  0.0 sec)
Calculating integrals                     ... Kinetic Energy               done (  0.0 sec)
Calculating integrals                     ... Angular Momentum  (MagOri)   done (  0.0 sec)
Calculating integrals                     ... EPR-gauge integrals          done (  0.0 sec)
  g-Tensor DSO: Zeff (2-electron approx.) ... YES 
Calculating integrals                     ... Spin-Orbit Coupling
  Spin-orbit operator                     ... Spin-Orbit Mean-Field (SOMF)
      1-El-Flag                           ...  1 ON
      Coulomb-Flag                        ...  2 ON (Via COSJ)
      Exchange-Flag                       ...  3 ON (AMFI type)
      DFT-Correlation Flag                ...  0 OFF
      Max-Center                          ...  4   
      Relativistic Picture Change         ... OFF     
  Electron density on the grid            ... done (%5.1 lf sec) NEL=     0.097683000
  SOC Coulomb terms                       ... done (%5.1 lf sec)
  One-electron part                       ... done (  0.0 sec)
  Two-electron DoJ,X=0,1 MaxCenter=1      ... done (  2.3 sec)
  SOC integrals done ( 12.8 sec)

Property integrals calculated in  12.8 sec

Maximum memory used throughout the entire PROPINT-calculation: 29.3 MB

-------------------------   --------------------
FINAL SINGLE POINT ENERGY     -1149.361835186560
-------------------------   --------------------

------------------------------------------------------------------------------
                            ORCA SCF RESPONSE CALCULATION
------------------------------------------------------------------------------

GBWName                                 ... tif3_cpks.gbw
Number of atoms                         ...      4
Number of basis functions               ...    138
Max core memory                         ...   1024 MB

Electric field perturbation             ...  NO
Quadrupolar field perturbation          ...  NO
Magnetic field perturbation (no GIAO)   ... YES
Magnetic field perturbation (with GIAO) ...  NO
Linear momentum (velocity) perturbation ...  NO
Spin-orbit coupling perturbation        ...  NO
Choice of electric origin               ... Center of mass
Position of electric origin             ...     0.000000     0.000000     0.000000
Choice of magnetic origin               ... Center of nuclear charge
Position of magnetic origin             ...     0.000000     0.000000     0.000000
Nuclear geometric perturbations         ...  NO (  12 perturbations)
Nucleus-orbit perturbations             ...  NO (   0 perturbations)
Spin-dipole/Fermi contact perturbations ...  NO (   0 perturbations)

Total number of real perturbations      ...      0
Total number of imaginary perturbations ...      3
Total number of triplet perturbations   ...      0
Total number of SOC perturbations       ...      0


                              ***************************
                              * IMAGINARY PERTURBATIONS *
                              ***************************



-------------------
SHARK CP-SCF DRIVER
-------------------

Dimension of the orbital basis          ...    138
Dimension of the CPSCF-problem          ...   5561
Number of operators                     ...      2
Max. number of iterations               ...    128
Convergence Tolerance                   ... 1.0e-03
Number of perturbations                 ...      3
Perturbation type                       ... IMAGINARY

----------------------------
POPLE LINEAR EQUATION SOLVER
----------------------------

  ITERATION   0:   ||err||_max =   3.0731e+00 (   3.5 sec   0/  3 done)
  ITERATION   1:   ||err||_max =   5.5998e-01 (   3.4 sec   0/  3 done)
  ITERATION   2:   ||err||_max =   2.8362e-02 (   3.4 sec   1/  3 done)
  ITERATION   3:   ||err||_max =   1.8999e-03 (   2.9 sec   1/  3 done)
  ITERATION   4:   ||err||_max =   9.4289e-05 (   3.0 sec   3/  3 done)

CP-SCF equations solved in  16.2 sec
Response densities calculated in   0.0 sec

Maximum memory used throughout the entire SCFRESP-calculation: 22.7 MB

------------------------------------------------------------------------------
                              ORCA PROPERTY CALCULATIONS
------------------------------------------------------------------------------

GBWName                                 ... tif3_cpks.gbw
Number of atoms                         ...      4
Number of basis functions               ...    138
Max core memory                         ...   1024 MB

Electric properties:
Dipole moment                           ... YES
Quadrupole moment                       ...  NO
Static polarizability (Dipole/Dipole)   ...  NO
Static polarizability (Dipole/Quad.)    ...  NO
Static polarizability (Quad./Quad.)     ...  NO
Static polarizability (Velocity)        ...  NO

Atomic electric properties:
Dipole moment                           ...  NO
Quadrupole moment                       ...  NO
Static polarizability                   ...  NO

Choice of electric origin               ... Center of mass
Position of electric origin             ...     0.000000     0.000000     0.000000

General magnetic properties:
Magnetizability                         ...  NO

EPR properties:
g-Tensor (aka g-matrix)                 ... YES
Zero-Field splitting spin-orbit         ...  NO
Zero-field splitting spin-spin          ...  NO
Hyperfine couplings                     ...  NO (   0 nuclei)
Quadrupole couplings                    ...  NO (   0 nuclei)
Contact density                         ...  NO (   0 nuclei)

NMR properties:
Chemical shifts                         ...  NO (   0 nuclei)
Spin-rotation constants                 ...  NO (   0 nuclei)
Spin-spin couplings                     ...  NO (   0 nuclei,    0 pairs)

Choice of magnetic origin               ... Center of nuclear charge
Position of magnetic origin             ...     0.000000     0.000000     0.000000

Properties with geometric perturbations:
SCF Hessian                             ...  NO
IR spectrum                             ...  NO
VCD spectrum                            ...  NO
X-ray spectroscopy properties:
SCF XES/XAS/RIXS spectra                ...  NO


-------------
DIPOLE MOMENT
-------------

Method             : SCF
Type of density    : Electron Density
Multiplicity       :   2
Irrep              :   0
Energy             : -1149.3618351865600289 Eh
Relativity type    : 
Basis              : AO
                                X                 Y                 Z
Electronic contribution:      0.000011057      -0.000000000      -0.000000000
Nuclear contribution   :      0.000000000       0.000000000       0.000000000
                        -----------------------------------------
Total Dipole Moment    :      0.000011057      -0.000000000      -0.000000000
                        -----------------------------------------
Magnitude (a.u.)       :      0.000011057
Magnitude (Debye)      :      0.000028105



--------------------
Rotational spectrum 
--------------------
 
Rotational constants in cm-1:             0.191662             0.191662             0.095831 
Rotational constants in MHz :          5745.886011          5745.885061          2872.942768 

Dipole components along the rotational axes: 
x,y,z [a.u.] :    -0.000000     0.000011    -0.000000 
x,y,z [Debye]:    -0.000000     0.000028    -0.000000 

 

Dipole moment calculation done in   0.0 sec 

-------------------
ELECTRONIC G-MATRIX
-------------------

Method             : SCF
Type of density    : Spin Density
Type of derivative : Magnetic Field (no GIAOs) (Direction=X)
Multiplicity       :   2
Irrep              :   0
Relativity type    : 
Basis              : AO
The g-matrix: 
              1.9562477   -0.0000000   -0.0000000
              0.0000000    1.9562487   -0.0000000
             -0.0000000   -0.0000000    2.0010603
DSO contribution to g-matrix:
              0.0001790   -0.0000000    0.0000000
              0.0000000    0.0001790    0.0000000
              0.0000000    0.0000000    0.0000946
PSO contribution to g-matrix:
             -0.0458974   -0.0000000   -0.0000000
              0.0000000   -0.0458964   -0.0000000
             -0.0000000   -0.0000000   -0.0010004

Breakdown of the contributions
 gel          2.0023193    2.0023193    2.0023193
 gRMC        -0.0003532   -0.0003532   -0.0003532
 gDSO(1el)    0.0003936    0.0003936    0.0002219
 gDSO(2el)   -0.0002146   -0.0002146   -0.0001273
 gDSO(tot)    0.0001790    0.0001790    0.0000946
 gPSO(1el)   -0.1001888   -0.1001865   -0.0018608
 gPSO(2el)    0.0542913    0.0542900    0.0008604
 gPSO(tot)   -0.0458974   -0.0458964   -0.0010004
             ----------   ----------   ----------
 g(tot)       1.9562477    1.9562487    2.0010603 iso=  1.9711856
 Delta-g     -0.0460716   -0.0460706   -0.0012590 iso= -0.0311337

 Orientation: 
  X          -1.0000000    0.0000027   -0.0000000
  Y          -0.0000027   -1.0000000   -0.0000000
  Z          -0.0000000   -0.0000000    1.0000000

Notes:  (1) The g-matrix conforms to the "BgS" spin Hamiltonian convention. 
        (2) The principal values are square roots of the eigenvalues of g*gT.
        (3) Orientations are eigenvectors of g*gT written as column vectors.
        (4) Individual contributions are projections of the full matrices onto the eigenvectors of g*gT.
        (5) Tensor is right-handed.

-------------------------------
G-TENSOR ATOM AND BOND ANALYSIS
-------------------------------

 NOTE: We project onto the eigenvectors of the total g-matrix
       that means that contributions do not necessarily add up to the final total g-values
       However, the values should be close and indicate which atoms dominantly contribute

 NOTE: We ONLY analyze the PSO term here!

 Ti-  0 :   -0.0492072 *  -0.0492061 *  -0.0007473 *  iso= -0.0330536 *
 F -  1 :    0.0000534     0.0021397    -0.0000810 *  iso=  0.0007040  
 F -  2 :    0.0016181     0.0005749    -0.0000810 *  iso=  0.0007040  
 F -  3 :    0.0016181     0.0005750    -0.0000810 *  iso=  0.0007040  
           ------------- ------------- ------------- -----------------
 Total-1c   -0.0459176    -0.0459166    -0.0009902        -0.0309415
 Total-2c    0.0000201     0.0000201    -0.0000102         0.0000100
 Total      -0.0458974    -0.0458964    -0.0010004        -0.0309314

EPR g-tensor done in   0.0 sec 

Maximum memory used throughout the entire PROP-calculation: 12.4 MB

--------------------------------
SUGGESTED CITATIONS FOR THIS RUN
--------------------------------

Below you find a list of papers that are relevant to this ORCA run
We neither can nor want to force you to cite these papers, but we appreciate if you do
You receive ORCA, which is the product of decades of hard work by many enthusiastic individuals, for free
The only thing we kindly ask in return is that you cite our papers,
We deeply appreciate it, if you show your appreciation for ORCA by not just citing the generic ORCA reference.

Please note that relegating all ORCA citations to the supporting information does *not* help us.
SI sections are not indexed - citations you put there will not count into any citation statistics
But we need these citations in order to attract the funding resources that allow us to do what we are doing

Therefore, if you are a happy ORCA user, please consider citing a few of the papers listed below in the main body of your paper

In addition to the list printed below, the program has created the file tif3_cpks.bibtex that contains the list in bibtex format
You can import this file easily into all common literature databanks and citation aid programs


List of essential papers. We consider these as the minimum necessary citations

  1. Neese,F.
     Software update: the ORCA program system, version 5.0
     WIRES Comput. Molec. Sci., 2022 12(1)e1606
     doi.org/10.1002/wcms.1606

List of papers to cite with high priority. The work reported in these papers was absolutely
necessary for this run to complete.
Our perspective: the developers of density functionals and basis sets usually get cited in chemistry papers
Good! But without the algorithms to do something with them, the functionals or basis sets would not do anything.
Hence, in our opinion, the algorithm design and method developments papers are equally worthy of getting cited

  1. Neese,F.
     Prediction of electron paramagnetic resonance g values using coupled perturbed Hartree-Fock and Kohn-Sham theory
     J. Chem. Phys., 2001 115(24)11080-11096
     doi.org/10.1063/1.1419058
  2. Neese,F.
     Efficient and accurate approximations to the molecular spin-orbit coupling operator and their use in molecular g-tensor calculations
     J. Chem. Phys., 2005 122(3)Art. No. 034107
     doi.org/10.1063/1.1829047
  3. Neese,F.
     The SHARK Integral Generation and Digestion System
     J. Comp. Chem., 2022  1-16
     doi.org/10.1002/jcc.26942

List of suggested additional citations. These are papers that are important in the 'surrounding' of 
of this run, or papers that preceded the highly important papers. If you like your results we are grateful for a citation.

  1. Neese,F.
     The ORCA program system
     WIRES Comput. Molec. Sci., 2012 2(1)73-78
     doi.org/10.1002/wcms.81
  2. Neese,F.
     Software update: the ORCA program system, version 4.0
     WIRES Comput. Molec. Sci., 2018 8(1)1-6
     doi.org/10.1002/wcms.1327
  3. Neese,F.; Wennmohs,F.; Becker,U.; Riplinger,C.
     The ORCA quantum chemistry program package
     J. Chem. Phys., 2020 152 Art. No. L224108
     doi.org/10.1063/5.0004608

List of optional additional citations

  1. Neese,F.
     Approximate second-order SCF convergence for spin unrestricted wavefunctions
     Chem. Phys. Lett., 2000 325(1-3)93-98
     doi.org/10.1016/s0009-2614(00)00662-x

Timings for individual modules:

Sum of individual times          ...       35.465 sec (=   0.591 min)
Startup calculation              ...        0.421 sec (=   0.007 min)   1.2 %
SCF iterations                   ...        5.473 sec (=   0.091 min)  15.4 %
Property integrals               ...       12.922 sec (=   0.215 min)  36.4 %
SCF Response                     ...       16.481 sec (=   0.275 min)  46.5 %
Property calculations            ...        0.168 sec (=   0.003 min)   0.5 %
                             ****ORCA TERMINATED NORMALLY****
TOTAL RUN TIME: 0 days 0 hours 0 minutes 35 seconds 709 msec
